       N       E                     dE             d eps       ncg     rms          rms(c)
DAV:   1     0.201765043094E+05    0.20177E+05   -0.48096E+05  3328   0.152E+03
DAV:   2     0.738657369225E+04   -0.12790E+05   -0.11157E+05  3776   0.382E+02
DAV:   3     0.611278590488E+03   -0.67753E+04   -0.64719E+04  4464   0.259E+02
DAV:   4    -0.118524493797E+04   -0.17965E+04   -0.17172E+04  4688   0.134E+02
DAV:   5    -0.136664210728E+04   -0.18140E+03   -0.17903E+03  5536   0.541E+01    0.131E+02
RMM:   6    -0.112111000965E+04    0.24553E+03   -0.39468E+03  4768   0.679E+01    0.194E+02
RMM:   7    -0.142960046964E+04   -0.30849E+03   -0.14160E+03  4742   0.550E+01    0.212E+02
RMM:   8    -0.108744298294E+04    0.34216E+03   -0.41825E+02  4257   0.354E+01    0.758E+01
RMM:   9    -0.957936062931E+03    0.12951E+03   -0.18436E+02  4139   0.181E+01    0.103E+02
RMM:  10    -0.961533372732E+03   -0.35973E+01   -0.96511E+01  4040   0.148E+01    0.625E+01
RMM:  11    -0.860628746542E+03    0.10090E+03   -0.15818E+02  4142   0.165E+01    0.549E+01
RMM:  12    -0.799014350960E+03    0.61614E+02   -0.20285E+02  4458   0.165E+01    0.471E+01
RMM:  13    -0.780763392452E+03    0.18251E+02   -0.56155E+01  4655   0.690E+00    0.476E+01
RMM:  14    -0.776378864819E+03    0.43845E+01   -0.11592E+01  4583   0.399E+00    0.433E+01
RMM:  15    -0.756018068827E+03    0.20361E+02   -0.30856E+01  4154   0.642E+00    0.350E+01
RMM:  16    -0.749202103385E+03    0.68160E+01   -0.26729E+01  4341   0.575E+00    0.363E+01
RMM:  17    -0.751850982378E+03   -0.26489E+01   -0.16538E+01  4330   0.409E+00    0.368E+01
RMM:  18    -0.760830230614E+03   -0.89792E+01   -0.10103E+01  4123   0.390E+00    0.300E+01
RMM:  19    -0.772003902809E+03   -0.11174E+02   -0.13077E+01  4210   0.405E+00    0.275E+01
RMM:  20    -0.793402673511E+03   -0.21399E+02   -0.16880E+01  4051   0.471E+00    0.269E+01
RMM:  21    -0.827689403622E+03   -0.34287E+02   -0.33626E+01  4100   0.689E+00    0.338E+01
RMM:  22    -0.839450416644E+03   -0.11761E+02   -0.22359E+01  4434   0.475E+00    0.318E+01
RMM:  23    -0.854639456638E+03   -0.15189E+02   -0.30812E+01  4511   0.379E+00    0.517E+01
RMM:  24    -0.856160802944E+03   -0.15213E+01   -0.14175E+01  4415   0.269E+00    0.540E+01
RMM:  25    -0.859905625376E+03   -0.37448E+01   -0.19544E+01  4991   0.170E+00    0.709E+01
RMM:  26    -0.861178665665E+03   -0.12730E+01   -0.12172E+01  5212   0.122E+00    0.884E+01
RMM:  27    -0.862848334535E+03   -0.16697E+01   -0.11329E+01  5058   0.107E+00    0.998E+01
RMM:  28    -0.863473703215E+03   -0.62537E+00   -0.56686E+00  4498   0.105E+00    0.106E+02
RMM:  29    -0.865164902761E+03   -0.16912E+01   -0.46760E+00  4706   0.839E-01    0.120E+02
RMM:  30    -0.865058487708E+03    0.10642E+00   -0.17227E+00  4317   0.783E-01    0.122E+02
RMM:  31    -0.865192969691E+03   -0.13448E+00   -0.83914E-01  4597   0.610E-01    0.123E+02
RMM:  32    -0.865529547770E+03   -0.33658E+00   -0.36866E-01  4288   0.527E-01    0.125E+02
RMM:  33    -0.866735563191E+03   -0.12060E+01   -0.34047E-01  4105   0.699E-01    0.129E+02
RMM:  34    -0.867069483836E+03   -0.33392E+00   -0.15498E-01  4335   0.552E-01    0.131E+02
RMM:  35    -0.867073074363E+03   -0.35905E-02   -0.47848E-02  4481   0.267E-01    0.131E+02
RMM:  36    -0.867361240449E+03   -0.28817E+00   -0.29626E-02  4452   0.185E-01    0.131E+02
RMM:  37    -0.867398312622E+03   -0.37072E-01   -0.30895E-02  3955   0.236E-01    0.131E+02
RMM:  38    -0.867651090124E+03   -0.25278E+00   -0.33173E-02  4030   0.262E-01    0.132E+02
RMM:  39    -0.867503653328E+03    0.14744E+00   -0.48288E-02  3917   0.306E-01    0.128E+02
RMM:  40    -0.867401242344E+03    0.10241E+00   -0.58306E-02  4015   0.339E-01    0.129E+02
RMM:  41    -0.867659107573E+03   -0.25787E+00   -0.36381E-02  3796   0.284E-01    0.129E+02
RMM:  42    -0.867610951260E+03    0.48156E-01   -0.25026E-02  3613   0.217E-01    0.128E+02
RMM:  43    -0.867586561968E+03    0.24389E-01   -0.92116E-03  3441   0.154E-01    0.129E+02
RMM:  44    -0.867493531955E+03    0.93030E-01   -0.12313E-02  3314   0.163E-01    0.128E+02
RMM:  45    -0.867656670490E+03   -0.16314E+00   -0.46262E-02  3677   0.285E-01    0.129E+02
RMM:  46    -0.867626316793E+03    0.30354E-01   -0.12835E-02  3578   0.169E-01    0.129E+02
RMM:  47    -0.867049429053E+03    0.57689E+00   -0.79268E-02  3744   0.395E-01    0.128E+02
RMM:  48    -0.867126624948E+03   -0.77196E-01   -0.13104E-01  3937   0.490E-01    0.128E+02
RMM:  49    -0.867065681609E+03    0.60943E-01   -0.67705E-02  3961   0.346E-01    0.128E+02
RMM:  50    -0.867031050807E+03    0.34631E-01   -0.14082E-02  3700   0.199E-01    0.128E+02
RMM:  51    -0.856853356977E+03    0.10178E+02   -0.21584E+01  3903   0.536E+00    0.280E+01
RMM:  52    -0.864134216535E+03   -0.72809E+01   -0.50813E+00  3949   0.357E+00    0.222E+01
RMM:  53    -0.869951624083E+03   -0.58174E+01   -0.31869E+00  4130   0.238E+00    0.201E+01
RMM:  54    -0.914485730979E+03   -0.44534E+02   -0.22003E+01  3874   0.587E+00    0.112E+02
RMM:  55    -0.920325775604E+03   -0.58400E+01   -0.62859E+00  4036   0.337E+00    0.102E+02
RMM:  56    -0.898063527873E+03    0.22262E+02   -0.55425E+00  4010   0.309E+00    0.411E+01
RMM:  57    -0.912914990974E+03   -0.14851E+02   -0.34318E+00  3961   0.251E+00    0.421E+01
RMM:  58    -0.917844415449E+03   -0.49294E+01   -0.13994E+00  4239   0.145E+00    0.420E+01
RMM:  59    -0.937292392737E+03   -0.19448E+02   -0.65106E+00  3791   0.320E+00    0.441E+01
RMM:  60    -0.951919138055E+03   -0.14627E+02   -0.60787E+00  4183   0.306E+00    0.443E+01
RMM:  61    -0.966528829791E+03   -0.14610E+02   -0.10214E+01  4068   0.387E+00    0.437E+01
RMM:  62    -0.974673808303E+03   -0.81450E+01   -0.56518E+00  4131   0.296E+00    0.434E+01
RMM:  63    -0.988193572467E+03   -0.13520E+02   -0.88564E+00  3985   0.349E+00    0.419E+01
RMM:  64    -0.100598535162E+04   -0.17792E+02   -0.14725E+01  4198   0.435E+00    0.407E+01
RMM:  65    -0.101743004211E+04   -0.11445E+02   -0.11161E+01  4336   0.368E+00    0.409E+01
RMM:  66    -0.102206585330E+04   -0.46358E+01   -0.11765E+01  4281   0.414E+00    0.496E+01
RMM:  67    -0.102597531798E+04   -0.39095E+01   -0.51355E+00  4372   0.263E+00    0.380E+01
RMM:  68    -0.103180119086E+04   -0.58259E+01   -0.57326E+00  4134   0.310E+00    0.353E+01
RMM:  69    -0.103812096995E+04   -0.63198E+01   -0.63416E+00  4356   0.289E+00    0.347E+01
RMM:  70    -0.104108661881E+04   -0.29656E+01   -0.37315E+00  4436   0.225E+00    0.339E+01
RMM:  71    -0.104356330312E+04   -0.24767E+01   -0.60421E+00  4094   0.305E+00    0.341E+01
RMM:  72    -0.104545243262E+04   -0.18891E+01   -0.46884E+00  4322   0.257E+00    0.229E+01
RMM:  73    -0.104846012956E+04   -0.30077E+01   -0.17641E+00  4523   0.150E+00    0.205E+01
RMM:  74    -0.105085088565E+04   -0.23908E+01   -0.32291E+00  4242   0.206E+00    0.207E+01
RMM:  75    -0.105183620278E+04   -0.98532E+00   -0.17597E+00  4484   0.144E+00    0.200E+01
RMM:  76    -0.105117500131E+04    0.66120E+00   -0.33841E+00  4186   0.224E+00    0.190E+01
RMM:  77    -0.105234518444E+04   -0.11702E+01   -0.20927E+00  4458   0.133E+00    0.173E+01
RMM:  78    -0.105262760651E+04   -0.28242E+00   -0.19650E+00  4314   0.186E+00    0.133E+01
RMM:  79    -0.105395667044E+04   -0.13291E+01   -0.56007E-01  4495   0.939E-01    0.124E+01
RMM:  80    -0.105469134794E+04   -0.73468E+00   -0.33140E-01  4503   0.706E-01    0.121E+01
RMM:  81    -0.105735473798E+04   -0.26634E+01   -0.62553E+00  4063   0.285E+00    0.227E+01
RMM:  82    -0.105655334417E+04    0.80139E+00   -0.14638E+00  4038   0.182E+00    0.150E+01
RMM:  83    -0.105683489371E+04   -0.28155E+00   -0.49840E-01  4310   0.848E-01    0.127E+01
RMM:  84    -0.105715894608E+04   -0.32405E+00   -0.95945E-01  4274   0.117E+00    0.110E+01
RMM:  85    -0.105742430476E+04   -0.26536E+00   -0.16484E+00  4482   0.138E+00    0.968E+00
RMM:  86    -0.106067150852E+04   -0.32472E+01   -0.22004E+00  4150   0.213E+00    0.144E+01
RMM:  87    -0.106272672139E+04   -0.20552E+01   -0.47897E-01  4278   0.100E+00    0.126E+01
RMM:  88    -0.106389284028E+04   -0.11661E+01   -0.60278E-01  4086   0.103E+00    0.112E+01
RMM:  89    -0.106488103724E+04   -0.98820E+00   -0.10896E+00  4440   0.116E+00    0.104E+01
RMM:  90    -0.106511383498E+04   -0.23280E+00   -0.12261E+00  4523   0.108E+00    0.101E+01
RMM:  91    -0.106568859418E+04   -0.57476E+00   -0.17724E+00  4133   0.185E+00    0.126E+01
RMM:  92    -0.106576586703E+04   -0.77273E-01   -0.34937E-01  4473   0.529E-01    0.113E+01
RMM:  93    -0.106596930593E+04   -0.20344E+00   -0.15470E-01  3996   0.524E-01    0.120E+01
RMM:  94    -0.106580299897E+04    0.16631E+00   -0.80710E-02  4463   0.301E-01    0.116E+01
RMM:  95    -0.106580448335E+04   -0.14844E-02   -0.13133E-02  3908   0.147E-01    0.116E+01
RMM:  96    -0.106571183260E+04    0.92651E-01   -0.20458E+00  3998   0.165E+00    0.156E+01
RMM:  97    -0.106517394356E+04    0.53789E+00   -0.68989E-01  4048   0.110E+00    0.107E+01
RMM:  98    -0.106523957502E+04   -0.65631E-01   -0.38368E-01  4424   0.626E-01    0.112E+01
RMM:  99    -0.106525619509E+04   -0.16620E-01   -0.55248E-02  4226   0.215E-01    0.114E+01
RMM: 100    -0.106547625820E+04   -0.22006E+00   -0.10611E-01  4306   0.375E-01    0.118E+01
RMM: 101    -0.106594798771E+04   -0.47173E+00   -0.65375E-01  4323   0.952E-01    0.129E+01
RMM: 102    -0.106615362554E+04   -0.20564E+00   -0.20980E-01  4402   0.523E-01    0.137E+01
RMM: 103    -0.106599720533E+04    0.15642E+00   -0.24764E-01  4260   0.575E-01    0.128E+01
RMM: 104    -0.106557341462E+04    0.42379E+00   -0.44936E-01  4472   0.719E-01    0.101E+01
RMM: 105    -0.106556319435E+04    0.10220E-01   -0.57672E-01  4401   0.811E-01    0.904E+00
RMM: 106    -0.106589409764E+04   -0.33090E+00   -0.58052E-01  4461   0.650E-01    0.898E+00
RMM: 107    -0.106604419906E+04   -0.15010E+00   -0.55462E-01  4375   0.680E-01    0.903E+00
RMM: 108    -0.106615790883E+04   -0.11371E+00   -0.82450E-01  4509   0.618E-01    0.908E+00
RMM: 109    -0.106616895610E+04   -0.11047E-01   -0.30276E-01  4376   0.513E-01    0.910E+00
RMM: 110    -0.106618281582E+04   -0.13860E-01   -0.61738E-02  4083   0.170E-01    0.908E+00
RMM: 111    -0.106610530696E+04    0.77509E-01   -0.68192E-01  4163   0.894E-01    0.935E+00
RMM: 112    -0.106609706673E+04    0.82402E-02   -0.91870E-02  3985   0.428E-01    0.947E+00
RMM: 113    -0.106607781012E+04    0.19257E-01   -0.67234E-02  4249   0.294E-01    0.925E+00
RMM: 114    -0.106606726701E+04    0.10543E-01   -0.14473E-02  3665   0.105E-01    0.925E+00
RMM: 115    -0.106605306529E+04    0.14202E-01   -0.17023E-02  3760   0.149E-01    0.925E+00
RMM: 116    -0.106603156556E+04    0.21500E-01   -0.35235E-01  4217   0.783E-01    0.937E+00
RMM: 117    -0.106596080270E+04    0.70763E-01   -0.12758E-01  4244   0.439E-01    0.942E+00
RMM: 118    -0.106596563996E+04   -0.48373E-02   -0.41967E-02  3806   0.134E-01    0.943E+00
RMM: 119    -0.106595093621E+04    0.14704E-01   -0.85473E-03  3364   0.111E-01    0.930E+00
RMM: 120    -0.106586295900E+04    0.87977E-01   -0.10238E-01  4243   0.313E-01    0.842E+00
RMM: 121    -0.106550426931E+04    0.35869E+00   -0.19003E+00  4177   0.126E+00    0.853E+00
RMM: 122    -0.106547143990E+04    0.32829E-01   -0.34704E+00  4526   0.122E+00    0.922E+00
RMM: 123    -0.106547439555E+04   -0.29557E-02   -0.23424E-01  4108   0.399E-01    0.927E+00
RMM: 124    -0.106547804236E+04   -0.36468E-02   -0.54636E-02  4494   0.136E-01    0.926E+00
RMM: 125    -0.106544056806E+04    0.37474E-01   -0.16013E-01  4232   0.278E-01    0.912E+00
RMM: 126    -0.106560057915E+04   -0.16001E+00   -0.11595E+00  4114   0.100E+00    0.984E+00
RMM: 127    -0.106578646177E+04   -0.18588E+00   -0.75809E-01  4308   0.675E-01    0.950E+00
RMM: 128    -0.106585580587E+04   -0.69344E-01   -0.19641E+00  4492   0.713E-01    0.926E+00
RMM: 129    -0.106585657078E+04   -0.76491E-03   -0.30189E-01  4312   0.275E-01    0.931E+00
RMM: 130    -0.106590165034E+04   -0.45080E-01   -0.20974E-01  4205   0.373E-01    0.923E+00
RMM: 131    -0.106437707854E+04    0.15246E+01   -0.34111E+01  4536   0.704E+00    0.337E+01
RMM: 132    -0.106487904479E+04   -0.50197E+00   -0.71634E+00  4536   0.276E+00    0.140E+01
RMM: 133    -0.106492169009E+04   -0.42645E-01   -0.72394E+00  3912   0.383E+00    0.112E+01
RMM: 134    -0.106502391014E+04   -0.10222E+00   -0.49684E+00  4393   0.163E+00    0.107E+01
RMM: 135    -0.106445808532E+04    0.56582E+00   -0.22720E+00  4057   0.179E+00    0.107E+01
RMM: 136    -0.106415642438E+04    0.30166E+00   -0.30565E+00  4526   0.167E+00    0.109E+01
RMM: 137    -0.106351657482E+04    0.63985E+00   -0.20146E+00  4360   0.138E+00    0.108E+01
RMM: 138    -0.106322768578E+04    0.28889E+00   -0.10395E+00  4415   0.909E-01    0.105E+01
RMM: 139    -0.106311275087E+04    0.11493E+00   -0.60568E-01  4488   0.560E-01    0.105E+01
RMM: 140    -0.106318306959E+04   -0.70319E-01   -0.72518E-01  4117   0.385E-01    0.124E+01
RMM: 141    -0.106342324159E+04   -0.24017E+00   -0.21157E+00  4332   0.646E-01    0.141E+01
RMM: 142    -0.106366836247E+04   -0.24512E+00   -0.20312E+00  4057   0.306E-01    0.185E+01
RMM: 143    -0.106370884225E+04   -0.40480E-01   -0.77412E-01  3828   0.216E-01    0.202E+01
RMM: 144    -0.106407918646E+04   -0.37034E+00   -0.43684E-01  4181   0.632E-01    0.143E+01
RMM: 145    -0.106422934194E+04   -0.15016E+00   -0.23092E-01  4366   0.296E-01    0.144E+01
RMM: 146    -0.106481088904E+04   -0.58155E+00   -0.22582E+00  4149   0.173E+00    0.101E+01
RMM: 147    -0.106498415571E+04   -0.17327E+00   -0.81900E-01  4512   0.802E-01    0.101E+01
RMM: 148    -0.106500471635E+04   -0.20561E-01   -0.13200E-01  3958   0.327E-01    0.101E+01
RMM: 149    -0.106504520182E+04   -0.40485E-01   -0.82711E-02  4450   0.243E-01    0.102E+01
RMM: 150    -0.106505337003E+04   -0.81682E-02   -0.34197E-02  3832   0.137E-01    0.102E+01
RMM: 151    -0.106487681429E+04    0.17656E+00   -0.38914E+00  4196   0.116E+00    0.996E+00
RMM: 152    -0.106486181276E+04    0.15002E-01   -0.19920E+00  4524   0.624E-01    0.981E+00
RMM: 153    -0.106493347402E+04   -0.71661E-01   -0.54667E-01  4292   0.635E-01    0.986E+00
RMM: 154    -0.106484429677E+04    0.89177E-01   -0.55745E-01  4489   0.738E-01    0.997E+00
RMM: 155    -0.106484318990E+04    0.11069E-02   -0.14252E-01  3999   0.276E-01    0.997E+00
RMM: 156    -0.106486092003E+04   -0.17730E-01   -0.11529E+00  4335   0.106E+00    0.666E+00
RMM: 157    -0.106514245582E+04   -0.28154E+00   -0.38620E-01  4077   0.602E-01    0.808E+00
RMM: 158    -0.106524335392E+04   -0.10090E+00   -0.45263E-01  4353   0.641E-01    0.765E+00
RMM: 159    -0.106528570765E+04   -0.42354E-01   -0.16411E-01  4418   0.268E-01    0.759E+00
RMM: 160    -0.106524911454E+04    0.36593E-01   -0.45654E-02  4110   0.207E-01    0.760E+00
RMM: 161    -0.106529037767E+04   -0.41263E-01   -0.11135E+00  4425   0.106E+00    0.662E+00
RMM: 162    -0.106539783195E+04   -0.10745E+00   -0.19747E-01  4329   0.565E-01    0.679E+00
RMM: 163    -0.106548992628E+04   -0.92094E-01   -0.14647E-01  4318   0.411E-01    0.730E+00
RMM: 164    -0.106539692295E+04    0.93003E-01   -0.28548E-01  4290   0.467E-01    0.810E+00
RMM: 165    -0.106542764414E+04   -0.30721E-01   -0.11847E-01  4485   0.309E-01    0.846E+00
RMM: 166    -0.106554440752E+04   -0.11676E+00   -0.28186E-01  4512   0.490E-01    0.871E+00
RMM: 167    -0.106555203540E+04   -0.76279E-02   -0.15331E-01  4309   0.262E-01    0.942E+00
RMM: 168    -0.106554991407E+04    0.21213E-02   -0.32242E-02  3821   0.130E-01    0.944E+00
RMM: 169    -0.106551601381E+04    0.33900E-01   -0.70285E-02  4246   0.178E-01    0.910E+00
RMM: 170    -0.106548539401E+04    0.30620E-01   -0.29581E-01  4291   0.269E-01    0.101E+01
RMM: 171    -0.106554871196E+04   -0.63318E-01   -0.41572E-01  4421   0.414E-01    0.114E+01
RMM: 172    -0.106557187368E+04   -0.23162E-01   -0.11831E-01  3895   0.187E-01    0.112E+01
RMM: 173    -0.106557724584E+04   -0.53722E-02   -0.26755E-02  3548   0.911E-02    0.110E+01
RMM: 174    -0.106556765185E+04    0.95940E-02   -0.37791E-01  4027   0.361E-01    0.963E+00
RMM: 175    -0.106560161235E+04   -0.33961E-01   -0.14976E-01  4234   0.189E-01    0.955E+00
RMM: 176    -0.106549613551E+04    0.10548E+00   -0.13651E-01  4106   0.457E-01    0.813E+00
RMM: 177    -0.106550448098E+04   -0.83455E-02   -0.15430E-01  4377   0.330E-01    0.804E+00
RMM: 178    -0.106550196338E+04    0.25176E-02   -0.12207E-01  4322   0.260E-01    0.808E+00
RMM: 179    -0.106547998650E+04    0.21977E-01   -0.38817E-01  4390   0.306E-01    0.810E+00
RMM: 180    -0.106546379587E+04    0.16191E-01   -0.30136E-01  4313   0.248E-01    0.833E+00
RMM: 181    -0.106546421216E+04   -0.41629E-03   -0.21752E-01  4044   0.431E-01    0.767E+00
RMM: 182    -0.106547020469E+04   -0.59925E-02   -0.18947E-01  4295   0.247E-01    0.759E+00
RMM: 183    -0.106544999914E+04    0.20206E-01   -0.65502E-02  4248   0.200E-01    0.775E+00
RMM: 184    -0.106543456542E+04    0.15434E-01   -0.80304E-02  4147   0.145E-01    0.804E+00
RMM: 185    -0.106542864978E+04    0.59156E-02   -0.15645E-02  3614   0.844E-02    0.810E+00
RMM: 186    -0.106546650837E+04   -0.37859E-01   -0.53980E-01  4070   0.574E-01    0.854E+00
RMM: 187    -0.106544951888E+04    0.16989E-01   -0.97843E-02  4047   0.194E-01    0.851E+00
RMM: 188    -0.106544677090E+04    0.27480E-02   -0.23496E-02  3463   0.896E-02    0.851E+00
RMM: 189    -0.106546695151E+04   -0.20181E-01   -0.68292E-02  3889   0.134E-01    0.853E+00
RMM: 190    -0.106552154183E+04   -0.54590E-01   -0.25438E-01  4046   0.190E-01    0.853E+00
RMM: 191    -0.106547834229E+04    0.43200E-01   -0.15349E-01  4269   0.326E-01    0.806E+00
RMM: 192    -0.106552226856E+04   -0.43926E-01   -0.25934E-01  4105   0.277E-01    0.846E+00
RMM: 193    -0.106554398060E+04   -0.21712E-01   -0.81480E-02  4150   0.159E-01    0.830E+00
RMM: 194    -0.106554946483E+04   -0.54842E-02   -0.38641E-02  3298   0.756E-02    0.831E+00
RMM: 195    -0.106553695404E+04    0.12511E-01   -0.20724E-02  3235   0.931E-02    0.841E+00
RMM: 196    -0.106551676981E+04    0.20184E-01   -0.24545E+00  4102   0.983E-01    0.889E+00
RMM: 197    -0.106540771893E+04    0.10905E+00   -0.21231E+00  4438   0.706E-01    0.773E+00
RMM: 198    -0.106552072520E+04   -0.11301E+00   -0.12622E+00  4444   0.467E-01    0.754E+00
RMM: 199    -0.106560376063E+04   -0.83035E-01   -0.87781E-01  4228   0.461E-01    0.771E+00
RMM: 200    -0.106561575367E+04   -0.11993E-01   -0.89385E-01  4437   0.420E-01    0.772E+00
RMM: 201    -0.106580363987E+04   -0.18789E+00   -0.15634E+00  4147   0.949E-01    0.811E+00
RMM: 202    -0.106601258493E+04   -0.20895E+00   -0.53630E-01  4390   0.449E-01    0.964E+00
RMM: 203    -0.106594430605E+04    0.68279E-01   -0.32881E-01  4234   0.399E-01    0.960E+00
RMM: 204    -0.106594150604E+04    0.28000E-02   -0.15730E-01  3837   0.140E-01    0.962E+00
RMM: 205    -0.106595494269E+04   -0.13437E-01   -0.28619E-02  3195   0.859E-02    0.961E+00
RMM: 206    -0.106619935966E+04   -0.24442E+00   -0.38243E+00  4198   0.145E+00    0.876E+00
RMM: 207    -0.106635819353E+04   -0.15883E+00   -0.45554E+00  4417   0.946E-01    0.947E+00
RMM: 208    -0.106639839520E+04   -0.40202E-01   -0.16288E+00  4387   0.632E-01    0.961E+00
RMM: 209    -0.106638779975E+04    0.10595E-01   -0.43325E-01  4328   0.294E-01    0.967E+00
RMM: 210    -0.106641067216E+04   -0.22872E-01   -0.29062E-01  4125   0.390E-01    0.988E+00
RMM: 211    -0.106657464094E+04   -0.16397E+00   -0.68865E-01  4171   0.669E-01    0.980E+00
RMM: 212    -0.106670592035E+04   -0.13128E+00   -0.55057E-01  4521   0.472E-01    0.982E+00
RMM: 213    -0.106672269559E+04   -0.16775E-01   -0.10528E-01  3817   0.175E-01    0.985E+00
RMM: 214    -0.106655275837E+04    0.16994E+00   -0.20580E-01  3941   0.336E-01    0.997E+00
RMM: 215    -0.106654597739E+04    0.67810E-02   -0.11644E-01  3575   0.115E-01    0.100E+01
RMM: 216    -0.106638310756E+04    0.16287E+00   -0.47748E-01  4009   0.529E-01    0.101E+01
RMM: 217    -0.106654414942E+04   -0.16104E+00   -0.52741E-01  3943   0.392E-01    0.102E+01
RMM: 218    -0.106662016184E+04   -0.76012E-01   -0.56075E-01  4188   0.379E-01    0.103E+01
RMM: 219    -0.106664072496E+04   -0.20563E-01   -0.59470E-01  4265   0.365E-01    0.105E+01
RMM: 220    -0.106661863844E+04    0.22087E-01   -0.25322E-01  4062   0.216E-01    0.106E+01
RMM: 221    -0.106650974888E+04    0.10889E+00   -0.60261E-01  4094   0.609E-01    0.109E+01
RMM: 222    -0.106649306883E+04    0.16680E-01   -0.64591E-01  4370   0.436E-01    0.109E+01
RMM: 223    -0.106649582019E+04   -0.27514E-02   -0.50747E-02  3704   0.150E-01    0.110E+01
RMM: 224    -0.106651020580E+04   -0.14386E-01   -0.15074E-02  3765   0.755E-02    0.110E+01
RMM: 225    -0.106652180626E+04   -0.11600E-01   -0.30194E-02  3238   0.129E-01    0.110E+01
RMM: 226    -0.106660032443E+04   -0.78518E-01   -0.23398E+00  4134   0.126E+00    0.118E+01
RMM: 227    -0.106657289597E+04    0.27428E-01   -0.15767E+00  4437   0.811E-01    0.115E+01
RMM: 228    -0.106558490734E+04    0.98799E+00   -0.24775E+00  4144   0.134E+00    0.117E+01
RMM: 229    -0.106552377138E+04    0.61136E-01   -0.31686E+00  4509   0.101E+00    0.602E+00
RMM: 230    -0.106569024073E+04   -0.16647E+00   -0.64331E-01  4285   0.727E-01    0.801E+00
RMM: 231    -0.106550681629E+04    0.18342E+00   -0.33535E-01  3924   0.636E-01    0.527E+00
RMM: 232    -0.106557527796E+04   -0.68462E-01   -0.29786E-01  4198   0.366E-01    0.637E+00
RMM: 233    -0.106566408814E+04   -0.88810E-01   -0.17453E-01  4275   0.283E-01    0.103E+01
RMM: 234    -0.106568041412E+04   -0.16326E-01   -0.21151E-01  3947   0.368E-01    0.963E+00
RMM: 235    -0.106576270085E+04   -0.82287E-01   -0.46577E-01  4303   0.296E-01    0.104E+01
RMM: 236    -0.106554481098E+04    0.21789E+00   -0.32410E-01  4061   0.573E-01    0.472E+00
RMM: 237    -0.106575826291E+04   -0.21345E+00   -0.81549E-01  4198   0.805E-01    0.690E+00
RMM: 238    -0.106589552760E+04   -0.13726E+00   -0.13201E+00  4425   0.726E-01    0.793E+00
RMM: 239    -0.106584622826E+04    0.49299E-01   -0.90136E-02  3836   0.343E-01    0.641E+00
RMM: 240    -0.106585863973E+04   -0.12411E-01   -0.70421E-02  3799   0.132E-01    0.665E+00
RMM: 241    -0.106656172044E+04   -0.70308E+00   -0.20521E+00  4013   0.153E+00    0.121E+01
RMM: 242    -0.106669844700E+04   -0.13673E+00   -0.98562E-01  4481   0.568E-01    0.120E+01
RMM: 243    -0.106665022055E+04    0.48226E-01   -0.50587E-02  3657   0.280E-01    0.120E+01
RMM: 244    -0.106665680021E+04   -0.65797E-02   -0.12394E-02  3713   0.834E-02    0.120E+01
RMM: 245    -0.106665791018E+04   -0.11100E-02   -0.35610E-03  3105   0.452E-02    0.120E+01
RMM: 246    -0.106656294918E+04    0.94961E-01   -0.86786E-01  3977   0.776E-01    0.109E+01
RMM: 247    -0.106657142333E+04   -0.84742E-02   -0.21063E-01  3866   0.453E-01    0.115E+01
RMM: 248    -0.106657353043E+04   -0.21071E-02   -0.81453E-01  4390   0.412E-01    0.117E+01
RMM: 249    -0.106653413087E+04    0.39400E-01   -0.12004E-01  3776   0.239E-01    0.113E+01
RMM: 250    -0.106652967785E+04    0.44530E-02   -0.21358E-02  3430   0.126E-01    0.110E+01
RMM: 251    -0.106641411072E+04    0.11557E+00   -0.43650E+00  3996   0.103E+00    0.120E+01
RMM: 252    -0.106654301539E+04   -0.12890E+00   -0.10474E+00  4352   0.504E-01    0.121E+01
RMM: 253    -0.106655653885E+04   -0.13523E-01   -0.80760E-02  3766   0.187E-01    0.120E+01
RMM: 254    -0.106654499848E+04    0.11540E-01   -0.28711E-02  3365   0.809E-02    0.121E+01
RMM: 255    -0.106657891396E+04   -0.33915E-01   -0.95067E-03  2930   0.777E-02    0.122E+01
RMM: 256    -0.106651152814E+04    0.67386E-01   -0.16094E+01  4209   0.336E+00    0.120E+01
RMM: 257    -0.106631988954E+04    0.19164E+00   -0.64477E+00  4258   0.136E+00    0.101E+01
RMM: 258    -0.106627337790E+04    0.46512E-01   -0.12163E+00  4265   0.807E-01    0.900E+00
RMM: 259    -0.106618082279E+04    0.92555E-01   -0.13614E+00  4311   0.865E-01    0.924E+00
RMM: 260    -0.106610267430E+04    0.78148E-01   -0.28081E+00  4089   0.122E+00    0.949E+00
RMM: 261    -0.106618006199E+04   -0.77388E-01   -0.75169E-01  4355   0.570E-01    0.102E+01
RMM: 262    -0.106616978921E+04    0.10273E-01   -0.62546E-02  3720   0.231E-01    0.994E+00
RMM: 263    -0.106616986211E+04   -0.72906E-04   -0.11016E-01  3894   0.314E-01    0.113E+01
RMM: 264    -0.106617484530E+04   -0.49832E-02   -0.31598E-02  3550   0.118E-01    0.113E+01
RMM: 265    -0.106621244112E+04   -0.37596E-01   -0.18555E-01  3861   0.365E-01    0.110E+01
RMM: 266    -0.106616143058E+04    0.51011E-01   -0.12032E+00  4148   0.803E-01    0.109E+01
RMM: 267    -0.106605864335E+04    0.10279E+00   -0.75699E-01  4364   0.518E-01    0.912E+00
RMM: 268    -0.106602710241E+04    0.31541E-01   -0.26255E-01  4181   0.390E-01    0.941E+00
RMM: 269    -0.106600271232E+04    0.24390E-01   -0.24467E-01  4121   0.271E-01    0.977E+00
RMM: 270    -0.106600151265E+04    0.11997E-02   -0.72310E-02  3827   0.246E-01    0.102E+01
RMM: 271    -0.106584811945E+04    0.15339E+00   -0.34504E+00  4065   0.163E+00    0.116E+01
RMM: 272    -0.106627866345E+04   -0.43054E+00   -0.14416E+00  4014   0.856E-01    0.113E+01
RMM: 273    -0.106646012641E+04   -0.18146E+00   -0.14137E+00  4325   0.740E-01    0.113E+01
RMM: 274    -0.106645740712E+04    0.27193E-02   -0.11347E-01  3789   0.257E-01    0.113E+01
RMM: 275    -0.106648308287E+04   -0.25676E-01   -0.17280E-02  3594   0.135E-01    0.113E+01
RMM: 276    -0.106686172884E+04   -0.37865E+00   -0.23615E+00  3990   0.121E+00    0.114E+01
RMM: 277    -0.106712146105E+04   -0.25973E+00   -0.29572E+00  4498   0.120E+00    0.118E+01
RMM: 278    -0.106701689896E+04    0.10456E+00   -0.59241E-01  4098   0.887E-01    0.119E+01
RMM: 279    -0.106681261072E+04    0.20429E+00   -0.94269E-01  4355   0.904E-01    0.120E+01
RMM: 280    -0.106670935221E+04    0.10326E+00   -0.50042E-01  4268   0.689E-01    0.120E+01
RMM: 281    -0.106116509772E+04    0.55443E+01   -0.22858E+01  3926   0.739E+00    0.117E+01
RMM: 282    -0.106194005999E+04   -0.77496E+00   -0.57918E+00  4226   0.212E+00    0.107E+01
RMM: 283    -0.106231077708E+04   -0.37072E+00   -0.26010E+00  4023   0.218E+00    0.104E+01
RMM: 284    -0.106235893964E+04   -0.48163E-01   -0.16116E+00  4368   0.105E+00    0.101E+01
RMM: 285    -0.106239406058E+04   -0.35121E-01   -0.21065E-01  3991   0.561E-01    0.101E+01
RMM: 286    -0.103168417128E+04    0.30710E+02   -0.57196E+01  4278   0.992E+00    0.161E+01
RMM: 287    -0.103374603952E+04   -0.20619E+01   -0.23596E+01  4591   0.510E+00    0.157E+01
RMM: 288    -0.103222672147E+04    0.15193E+01   -0.56168E+00  4722   0.232E+00    0.159E+01
RMM: 289    -0.104092962639E+04   -0.87029E+01   -0.54085E+00  3898   0.335E+00    0.154E+01
RMM: 290    -0.105089231504E+04   -0.99627E+01   -0.20182E+01  4197   0.528E+00    0.148E+01
RMM: 291    -0.105225178003E+04   -0.13595E+01   -0.10571E+01  4112   0.450E+00    0.144E+01
RMM: 292    -0.105303651238E+04   -0.78473E+00   -0.45432E+00  4288   0.280E+00    0.142E+01
RMM: 293    -0.105571623032E+04   -0.26797E+01   -0.34027E+00  4056   0.256E+00    0.134E+01
RMM: 294    -0.105855747718E+04   -0.28412E+01   -0.48890E+00  4091   0.288E+00    0.126E+01
RMM: 295    -0.105911213896E+04   -0.55466E+00   -0.27181E+00  4450   0.158E+00    0.120E+01
RMM: 296    -0.105804385669E+04    0.10683E+01   -0.16563E+00  3825   0.191E+00    0.116E+01
RMM: 297    -0.105849662588E+04   -0.45277E+00   -0.92354E-01  4504   0.836E-01    0.111E+01
RMM: 298    -0.105843179225E+04    0.64834E-01   -0.11990E-01  3799   0.486E-01    0.112E+01
RMM: 299    -0.105839259728E+04    0.39195E-01   -0.43662E-02  4314   0.147E-01    0.111E+01
RMM: 300    -0.105839841543E+04   -0.58182E-02   -0.91434E-02  4141   0.427E-01
   1 F= -.10583930E+04 E0= -.10583324E+04  d E =-.105839E+04  mag=    13.5428
       N       E                     dE             d eps       ncg     rms          rms(c)
DAV:   1    -0.106096583743E+04   -0.25732E+01   -0.83704E+01  4384   0.103E+01    0.856E+00
RMM:   2    -0.106711669047E+04   -0.61509E+01   -0.76458E+00  3820   0.429E+00    0.210E+01
RMM:   3    -0.106705113839E+04    0.65552E-01   -0.43746E+00  3972   0.273E+00    0.164E+01
RMM:   4    -0.106652805548E+04    0.52308E+00   -0.22838E+00  4034   0.193E+00    0.955E+00
RMM:   5    -0.106759699290E+04   -0.10689E+01   -0.21810E+00  4046   0.170E+00    0.180E+01
RMM:   6    -0.106732636126E+04    0.27063E+00   -0.93029E-01  3929   0.124E+00    0.696E+00
RMM:   7    -0.106736959066E+04   -0.43229E-01   -0.47376E-01  3996   0.797E-01    0.725E+00
RMM:   8    -0.106738192660E+04   -0.12336E-01   -0.44989E-01  3880   0.818E-01    0.604E+00
RMM:   9    -0.106733990066E+04    0.42026E-01   -0.36810E-01  3942   0.668E-01    0.477E+00
RMM:  10    -0.106735086697E+04   -0.10966E-01   -0.21660E-01  4009   0.509E-01    0.437E+00
RMM:  11    -0.106735542405E+04   -0.45571E-02   -0.20400E-01  3986   0.505E-01    0.340E+00
RMM:  12    -0.106736113116E+04   -0.57071E-02   -0.12856E-01  4155   0.355E-01    0.246E+00
RMM:  13    -0.106738114421E+04   -0.20013E-01   -0.11288E-01  4135   0.333E-01    0.161E+00
RMM:  14    -0.106739269839E+04   -0.11554E-01   -0.59984E-02  4076   0.193E-01    0.142E+00
RMM:  15    -0.106741115860E+04   -0.18460E-01   -0.64855E-02  4102   0.237E-01    0.102E+00
RMM:  16    -0.106743799559E+04   -0.26837E-01   -0.12172E-01  4161   0.266E-01    0.126E+00
RMM:  17    -0.106744799386E+04   -0.99983E-02   -0.43049E-02  4039   0.198E-01    0.902E-01
RMM:  18    -0.106746811573E+04   -0.20122E-01   -0.12185E-01  4086   0.308E-01    0.601E-01
RMM:  19    -0.106747742235E+04   -0.93066E-02   -0.63337E-02  3868   0.151E-01    0.800E-01
RMM:  20    -0.106748682928E+04   -0.94069E-02   -0.32456E-02  4051   0.167E-01    0.381E-01
RMM:  21    -0.106749465306E+04   -0.78238E-02   -0.39930E-02  3935   0.133E-01    0.280E-01
RMM:  22    -0.106750035679E+04   -0.57037E-02   -0.19718E-02  3705   0.121E-01    0.219E-01
RMM:  23    -0.106750705654E+04   -0.66997E-02   -0.33184E-02  3726   0.122E-01    0.235E-01
RMM:  24    -0.106751303702E+04   -0.59805E-02   -0.27854E-02  3638   0.148E-01    0.167E-01
RMM:  25    -0.106751848885E+04   -0.54518E-02   -0.40556E-02  3575   0.125E-01    0.148E-01
RMM:  26    -0.106752017414E+04   -0.16853E-02   -0.46808E-03  2987   0.631E-02    0.130E-01
RMM:  27    -0.106752270102E+04   -0.25269E-02   -0.96204E-03  2967   0.828E-02    0.109E-01
RMM:  28    -0.106752765204E+04   -0.49510E-02   -0.43361E-02  3368   0.174E-01    0.581E-02
RMM:  29    -0.106753019121E+04   -0.25392E-02   -0.23299E-02  3074   0.720E-02    0.110E-01
RMM:  30    -0.106752998264E+04    0.20857E-03   -0.36764E-04  2264   0.367E-02    0.112E-01
RMM:  31    -0.106752917087E+04    0.81177E-03   -0.76620E-04  2232   0.321E-02    0.116E-01
RMM:  32    -0.106752967523E+04   -0.50436E-03   -0.18007E-04  2117   0.259E-02    0.107E-01
RMM:  33    -0.106753306620E+04   -0.33910E-02   -0.15971E-02  2756   0.110E-01    0.726E-02
RMM:  34    -0.106753532506E+04   -0.22589E-02   -0.17353E-02  3144   0.714E-02    0.106E-01
RMM:  35    -0.106753498324E+04    0.34182E-03   -0.27868E-04  2136   0.306E-02    0.110E-01
RMM:  36    -0.106753503491E+04   -0.51666E-04   -0.97577E-05  2108   0.180E-02
   2 F= -.10675130E+04 E0= -.10674572E+04  d E =-.912000E+01  mag=    11.9818
       N       E                     dE             d eps       ncg     rms          rms(c)
DAV:   1    -0.106754120867E+04   -0.62254E-02   -0.85104E-03  3664   0.752E-02    0.112E-01
RMM:   2    -0.106754394478E+04   -0.27361E-02   -0.16086E-02  2984   0.127E-01    0.220E-01
RMM:   3    -0.106754451075E+04   -0.56597E-03   -0.55316E-03  2741   0.475E-02    0.204E-01
RMM:   4    -0.106754517052E+04   -0.65976E-03   -0.18009E-03  2457   0.472E-02    0.169E-01
RMM:   5    -0.106754576990E+04   -0.59938E-03   -0.15843E-03  2390   0.326E-02    0.121E-01
RMM:   6    -0.106754566963E+04    0.10027E-03   -0.93712E-05  2065   0.183E-02    0.134E-01
RMM:   7    -0.106754589326E+04   -0.22363E-03   -0.86497E-05  2031   0.152E-02    0.140E-01
RMM:   8    -0.106754755325E+04   -0.16600E-02   -0.35035E-03  2491   0.528E-02    0.190E-01
RMM:   9    -0.106755118243E+04   -0.36292E-02   -0.24464E-02  2974   0.121E-01    0.177E-01
RMM:  10    -0.106755277616E+04   -0.15937E-02   -0.14510E-02  2865   0.605E-02    0.114E-01
RMM:  11    -0.106755403721E+04   -0.12610E-02   -0.25191E-03  2507   0.484E-02    0.107E-01
RMM:  12    -0.106755455994E+04   -0.52273E-03   -0.18914E-03  2370   0.325E-02    0.118E-01
RMM:  13    -0.106755093682E+04    0.36231E-02   -0.12361E-02  2538   0.969E-02    0.165E-01
RMM:  14    -0.106755077559E+04    0.16123E-03   -0.68094E-03  2569   0.363E-02    0.142E-01
RMM:  15    -0.106754868205E+04    0.20935E-02   -0.44691E-03  2481   0.658E-02    0.130E-01
RMM:  16    -0.106754769732E+04    0.98472E-03   -0.61428E-03  2747   0.465E-02    0.111E-01
RMM:  17    -0.106754645729E+04    0.12400E-02   -0.17749E-03  2351   0.447E-02    0.123E-01
RMM:  18    -0.106754533974E+04    0.11175E-02   -0.46806E-03  2643   0.441E-02    0.110E-01
RMM:  19    -0.106754471910E+04    0.62065E-03   -0.59182E-04  2136   0.317E-02    0.116E-01
RMM:  20    -0.106754351725E+04    0.12018E-02   -0.25883E-03  2430   0.402E-02    0.117E-01
RMM:  21    -0.106753873378E+04    0.47835E-02   -0.24733E-02  2874   0.123E-01    0.148E-01
RMM:  22    -0.106753722194E+04    0.15118E-02   -0.30338E-02  2989   0.912E-02    0.106E-01
RMM:  23    -0.106753719753E+04    0.24410E-04   -0.27005E-04  2096   0.278E-02
   3 F= -.10675153E+04 E0= -.10674595E+04  d E =-.912226E+01  mag=    11.9857
       N       E                     dE             d eps       ncg     rms          rms(c)
DAV:   1    -0.106759035471E+04   -0.53133E-01   -0.79104E+00  3520   0.216E+00    0.875E-01
RMM:   2    -0.106761978253E+04   -0.29428E-01   -0.24961E-01  3802   0.673E-01    0.220E+00
RMM:   3    -0.106761254301E+04    0.72395E-02   -0.64603E-02  4164   0.328E-01    0.166E+00
RMM:   4    -0.106761667083E+04   -0.41278E-02   -0.27863E-02  4176   0.187E-01    0.207E+00
RMM:   5    -0.106760869757E+04    0.79733E-02   -0.14191E-02  3575   0.152E-01    0.785E-01
RMM:   6    -0.106761198113E+04   -0.32836E-02   -0.14422E-02  3168   0.135E-01    0.128E+00
RMM:   7    -0.106761164358E+04    0.33754E-03   -0.17589E-02  3134   0.148E-01    0.764E-01
RMM:   8    -0.106761140964E+04    0.23395E-03   -0.10115E-02  2926   0.102E-01    0.441E-01
RMM:   9    -0.106761275724E+04   -0.13476E-02   -0.66320E-03  2864   0.954E-02    0.328E-01
RMM:  10    -0.106761313967E+04   -0.38243E-03   -0.36886E-03  2869   0.570E-02    0.220E-01
RMM:  11    -0.106761425124E+04   -0.11116E-02   -0.23319E-03  2671   0.569E-02    0.254E-01
RMM:  12    -0.106761484533E+04   -0.59409E-03   -0.23643E-03  2615   0.439E-02    0.145E-01
RMM:  13    -0.106761552666E+04   -0.68132E-03   -0.10060E-03  2450   0.405E-02    0.127E-01
RMM:  14    -0.106761670315E+04   -0.11765E-02   -0.31289E-03  2604   0.518E-02    0.107E-01
RMM:  15    -0.106761850403E+04   -0.18009E-02   -0.76016E-03  2830   0.645E-02    0.175E-01
RMM:  16    -0.106762208868E+04   -0.35847E-02   -0.19782E-02  2987   0.128E-01    0.136E-01
RMM:  17    -0.106762597970E+04   -0.38910E-02   -0.37941E-02  3363   0.115E-01    0.115E-01
RMM:  18    -0.106762746350E+04   -0.14838E-02   -0.42116E-03  2662   0.670E-02    0.881E-02
RMM:  19    -0.106762938126E+04   -0.19178E-02   -0.10944E-02  3000   0.713E-02    0.109E-01
RMM:  20    -0.106762333078E+04    0.60505E-02   -0.30939E-02  2780   0.156E-01    0.175E-01
RMM:  21    -0.106763015740E+04   -0.68266E-02   -0.25879E-02  2789   0.176E-01    0.896E-02
RMM:  22    -0.106762880520E+04    0.13522E-02   -0.17458E-03  2341   0.612E-02    0.877E-02
RMM:  23    -0.106763095483E+04   -0.21496E-02   -0.78086E-03  2477   0.795E-02    0.583E-02
RMM:  24    -0.106763285410E+04   -0.18993E-02   -0.12606E-02  3031   0.648E-02    0.856E-02
RMM:  25    -0.106763126599E+04    0.15881E-02   -0.28238E-03  2296   0.560E-02    0.104E-01
RMM:  26    -0.106763226454E+04   -0.99855E-03   -0.41363E-04  1997   0.307E-02    0.872E-02
RMM:  27    -0.106763439207E+04   -0.21275E-02   -0.71940E-03  2445   0.762E-02    0.601E-02
RMM:  28    -0.106763589833E+04   -0.15063E-02   -0.91716E-03  2756   0.523E-02    0.846E-02
RMM:  29    -0.106763635549E+04   -0.45716E-03   -0.39077E-04  1976   0.294E-02    0.807E-02
RMM:  30    -0.106763577235E+04    0.58314E-03   -0.31291E-04  1978   0.292E-02    0.914E-02
RMM:  31    -0.106763802482E+04   -0.22525E-02   -0.70469E-03  2405   0.801E-02    0.604E-02
RMM:  32    -0.106764010687E+04   -0.20820E-02   -0.13952E-02  2998   0.683E-02    0.851E-02
RMM:  33    -0.106764024893E+04   -0.14206E-03   -0.19973E-04  1950   0.265E-02    0.855E-02
RMM:  34    -0.106764031962E+04   -0.70691E-04   -0.59378E-05  1867   0.143E-02
   4 F= -.10676192E+04 E0= -.10675635E+04  d E =-.922617E+01  mag=    11.9902
       N       E                     dE             d eps       ncg     rms          rms(c)
DAV:   1    -0.106764351409E+04   -0.32652E-02   -0.23483E-01  3712   0.373E-01    0.166E-01
RMM:   2    -0.106764650206E+04   -0.29880E-02   -0.20064E-02  3514   0.167E-01    0.361E-01
RMM:   3    -0.106764705554E+04   -0.55348E-03   -0.64604E-03  2757   0.650E-02    0.365E-01
RMM:   4    -0.106764777128E+04   -0.71575E-03   -0.19886E-03  2422   0.531E-02    0.338E-01
RMM:   5    -0.106764816326E+04   -0.39197E-03   -0.18217E-03  2297   0.423E-02    0.140E-01
RMM:   6    -0.106764909870E+04   -0.93545E-03   -0.19757E-03  2300   0.470E-02    0.187E-01
RMM:   7    -0.106765046986E+04   -0.13712E-02   -0.57794E-03  2478   0.613E-02    0.132E-01
RMM:   8    -0.106765150969E+04   -0.10398E-02   -0.48511E-03  2414   0.475E-02    0.172E-01
RMM:   9    -0.106765337880E+04   -0.18691E-02   -0.56421E-03  2421   0.697E-02    0.120E-01
RMM:  10    -0.106765459177E+04   -0.12130E-02   -0.61008E-03  2518   0.502E-02    0.192E-01
RMM:  11    -0.106765687694E+04   -0.22852E-02   -0.85067E-03  2563   0.859E-02    0.163E-01
RMM:  12    -0.106765902559E+04   -0.21487E-02   -0.15695E-02  3003   0.769E-02    0.112E-01
RMM:  13    -0.106766072557E+04   -0.17000E-02   -0.53507E-03  2491   0.718E-02    0.928E-02
RMM:  14    -0.106766366246E+04   -0.29369E-02   -0.24926E-02  2887   0.120E-01    0.125E-01
RMM:  15    -0.106766584023E+04   -0.21778E-02   -0.19444E-02  2772   0.716E-02    0.124E-01
RMM:  16    -0.106766721947E+04   -0.13792E-02   -0.37283E-03  2363   0.595E-02    0.722E-02
RMM:  17    -0.106766996291E+04   -0.27434E-02   -0.22207E-02  2784   0.115E-01    0.524E-02
RMM:  18    -0.106767194759E+04   -0.19847E-02   -0.17991E-02  2746   0.688E-02    0.848E-02
RMM:  19    -0.106767308359E+04   -0.11360E-02   -0.24583E-03  2243   0.516E-02    0.707E-02
RMM:  20    -0.106767406103E+04   -0.97744E-03   -0.41173E-03  2389   0.446E-02    0.833E-02
RMM:  21    -0.106767483452E+04   -0.77350E-03   -0.10709E-03  2077   0.381E-02    0.709E-02
RMM:  22    -0.106767678030E+04   -0.19458E-02   -0.94505E-03  2470   0.782E-02    0.514E-02
RMM:  23    -0.106767998041E+04   -0.32001E-02   -0.30267E-02  3009   0.107E-01    0.787E-02
RMM:  24    -0.106768069053E+04   -0.71012E-03   -0.14323E-03  2326   0.436E-02    0.716E-02
RMM:  25    -0.106768200025E+04   -0.13097E-02   -0.45685E-03  2257   0.570E-02    0.584E-02
RMM:  26    -0.106768419771E+04   -0.21975E-02   -0.16075E-02  2620   0.939E-02    0.361E-02
RMM:  27    -0.106768732731E+04   -0.31296E-02   -0.32238E-02  2983   0.105E-01    0.744E-02
RMM:  28    -0.106768508072E+04    0.22466E-02   -0.59802E-03  2139   0.742E-02    0.102E-01
RMM:  29    -0.106768589941E+04   -0.81870E-03   -0.45727E-04  1786   0.273E-02    0.844E-02
RMM:  30    -0.106768649283E+04   -0.59342E-03   -0.31375E-04  1775   0.226E-02    0.733E-02
RMM:  31    -0.106768791910E+04   -0.14263E-02   -0.42970E-03  2126   0.526E-02    0.560E-02
RMM:  32    -0.106768915330E+04   -0.12342E-02   -0.68372E-03  2401   0.460E-02    0.751E-02
RMM:  33    -0.106768845324E+04    0.70006E-03   -0.71145E-04  1831   0.313E-02    0.848E-02
RMM:  34    -0.106768881785E+04   -0.36461E-03   -0.91917E-05  1692   0.161E-02    0.776E-02
RMM:  35    -0.106769047645E+04   -0.16586E-02   -0.49551E-03  2131   0.590E-02    0.541E-02
RMM:  36    -0.106769261077E+04   -0.21343E-02   -0.15222E-02  2723   0.713E-02    0.748E-02
RMM:  37    -0.106769260247E+04    0.82960E-05   -0.15788E-04  1824   0.249E-02
   5 F= -.10676711E+04 E0= -.10676156E+04  d E =-.927810E+01  mag=    11.9901
       N       E                     dE             d eps       ncg     rms          rms(c)
DAV:   1    -0.106782269576E+04   -0.13008E+00   -0.52458E+01  3328   0.542E+00    0.193E+00
RMM:   2    -0.106794284001E+04   -0.12014E+00   -0.10604E+00  3799   0.147E+00    0.420E+00
RMM:   3    -0.106795118299E+04   -0.83430E-02   -0.30255E-01  4249   0.707E-01    0.440E+00
RMM:   4    -0.106794255970E+04    0.86233E-02   -0.13051E-01  4257   0.428E-01    0.386E+00
RMM:   5    -0.106790908100E+04    0.33479E-01   -0.66452E-02  4227   0.316E-01    0.156E+00
RMM:   6    -0.106791702645E+04   -0.79454E-02   -0.55259E-02  4250   0.249E-01    0.201E+00
RMM:   7    -0.106791178993E+04    0.52365E-02   -0.42320E-02  3956   0.241E-01    0.173E+00
RMM:   8    -0.106790852127E+04    0.32687E-02   -0.23948E-02  3718   0.178E-01    0.101E+00
RMM:   9    -0.106790931906E+04   -0.79780E-03   -0.13736E-02  3337   0.144E-01    0.931E-01
RMM:  10    -0.106790844719E+04    0.87187E-03   -0.75814E-03  3039   0.112E-01    0.617E-01
RMM:  11    -0.106790915377E+04   -0.70658E-03   -0.53390E-03  3032   0.896E-02    0.509E-01
RMM:  12    -0.106790935973E+04   -0.20596E-03   -0.42012E-03  2855   0.767E-02    0.259E-01
RMM:  13    -0.106791012626E+04   -0.76652E-03   -0.27288E-03  2761   0.596E-02    0.276E-01
RMM:  14    -0.106791092751E+04   -0.80125E-03   -0.35120E-03  2655   0.572E-02    0.124E-01
RMM:  15    -0.106791185294E+04   -0.92543E-03   -0.26907E-03  2692   0.513E-02    0.160E-01
RMM:  16    -0.106791278018E+04   -0.92725E-03   -0.31892E-03  2563   0.500E-02    0.956E-02
RMM:  17    -0.106791435336E+04   -0.15732E-02   -0.58494E-03  2693   0.693E-02    0.801E-02
RMM:  18    -0.106791727289E+04   -0.29195E-02   -0.21143E-02  3052   0.967E-02    0.109E-01
RMM:  19    -0.106791967181E+04   -0.23989E-02   -0.17103E-02  2937   0.995E-02    0.867E-02
RMM:  20    -0.106792209798E+04   -0.24262E-02   -0.22299E-02  3109   0.957E-02    0.735E-02
RMM:  21    -0.106792105317E+04    0.10448E-02   -0.18350E-03  2306   0.501E-02    0.890E-02
RMM:  22    -0.106792297174E+04   -0.19186E-02   -0.55964E-03  2481   0.725E-02    0.655E-02
RMM:  23    -0.106792365565E+04   -0.68392E-03   -0.38163E-03  2571   0.380E-02    0.997E-02
RMM:  24    -0.106792433213E+04   -0.67648E-03   -0.11997E-03  2348   0.411E-02    0.633E-02
RMM:  25    -0.106792567970E+04   -0.13476E-02   -0.61546E-03  2592   0.611E-02    0.499E-02
RMM:  26    -0.106792756433E+04   -0.18846E-02   -0.15111E-02  2785   0.745E-02    0.692E-02
RMM:  27    -0.106792639339E+04    0.11709E-02   -0.22910E-03  2244   0.505E-02    0.863E-02
RMM:  28    -0.106792786323E+04   -0.14698E-02   -0.23200E-03  2353   0.550E-02    0.614E-02
RMM:  29    -0.106792913887E+04   -0.12756E-02   -0.62453E-03  2652   0.547E-02    0.566E-02
RMM:  30    -0.106792935148E+04   -0.21262E-03   -0.14252E-03  2107   0.271E-02    0.709E-02
RMM:  31    -0.106793002338E+04   -0.67190E-03   -0.10986E-03  2169   0.331E-02    0.628E-02
RMM:  32    -0.106793016923E+04   -0.14585E-03   -0.52322E-04  2077   0.218E-02    0.711E-02
RMM:  33    -0.106792961838E+04    0.55085E-03   -0.53439E-04  2064   0.208E-02    0.798E-02
RMM:  34    -0.106793021543E+04   -0.59705E-03   -0.35858E-04  2044   0.265E-02    0.685E-02
RMM:  35    -0.106793192004E+04   -0.17046E-02   -0.83313E-03  2423   0.704E-02    0.431E-02
RMM:  36    -0.106793384990E+04   -0.19299E-02   -0.16653E-02  2854   0.700E-02    0.694E-02
RMM:  37    -0.106793447237E+04   -0.62246E-03   -0.11013E-03  2220   0.398E-02    0.615E-02
RMM:  38    -0.106793384505E+04    0.62732E-03   -0.45749E-04  2009   0.330E-02    0.765E-02
RMM:  39    -0.106793482823E+04   -0.98318E-03   -0.16984E-03  2135   0.415E-02    0.603E-02
RMM:  40    -0.106793580682E+04   -0.97859E-03   -0.44860E-03  2453   0.396E-02    0.713E-02
RMM:  41    -0.106793659116E+04   -0.78434E-03   -0.14629E-03  2206   0.383E-02    0.598E-02
RMM:  42    -0.106793717805E+04   -0.58689E-03   -0.22245E-03  2310   0.305E-02    0.709E-02
RMM:  43    -0.106793698122E+04    0.19683E-03   -0.11379E-04  1883   0.192E-02    0.748E-02
RMM:  44    -0.106793859227E+04   -0.16111E-02   -0.59855E-03  2323   0.680E-02    0.476E-02
RMM:  45    -0.106793991655E+04   -0.13243E-02   -0.94411E-03  2706   0.525E-02    0.696E-02
RMM:  46    -0.106793983004E+04    0.86513E-04   -0.10715E-04  1899   0.212E-02
   6 F= -.10679216E+04 E0= -.10678669E+04  d E =-.250515E+00  mag=    11.9884
       N       E                     dE             d eps       ncg     rms          rms(c)
DAV:   1    -0.106795461160E+04   -0.14695E-01   -0.14738E+00  3552   0.886E-01    0.348E-01
RMM:   2    -0.106796104249E+04   -0.64309E-02   -0.42173E-02  3782   0.274E-01    0.104E+00
RMM:   3    -0.106795936975E+04    0.16727E-02   -0.11870E-02  3097   0.132E-01    0.633E-01
RMM:   4    -0.106796041998E+04   -0.10502E-02   -0.53346E-03  3003   0.892E-02    0.758E-01
RMM:   5    -0.106795959843E+04    0.82155E-03   -0.28646E-03  2683   0.725E-02    0.288E-01
RMM:   6    -0.106796018324E+04   -0.58481E-03   -0.24052E-03  2635   0.561E-02    0.406E-01
RMM:   7    -0.106796120426E+04   -0.10210E-02   -0.48611E-03  2694   0.725E-02    0.323E-01
RMM:   8    -0.106796168583E+04   -0.48157E-03   -0.44953E-03  2745   0.563E-02    0.168E-01
RMM:   9    -0.106796240680E+04   -0.72097E-03   -0.17639E-03  2509   0.479E-02    0.249E-01
RMM:  10    -0.106796300327E+04   -0.59647E-03   -0.29408E-03  2424   0.462E-02    0.118E-01
RMM:  11    -0.106796332489E+04   -0.32161E-03   -0.59549E-04  2160   0.308E-02    0.101E-01
RMM:  12    -0.106796392042E+04   -0.59553E-03   -0.13368E-03  2248   0.339E-02    0.840E-02
RMM:  13    -0.106796507633E+04   -0.11559E-02   -0.46399E-03  2411   0.550E-02    0.113E-01
RMM:  14    -0.106796695683E+04   -0.18805E-02   -0.15065E-02  2674   0.887E-02    0.111E-01
RMM:  15    -0.106796854443E+04   -0.15876E-02   -0.14159E-02  2678   0.637E-02    0.156E-01
RMM:  16    -0.106797023902E+04   -0.16946E-02   -0.94614E-03  2657   0.863E-02    0.594E-02
RMM:  17    -0.106797262896E+04   -0.23899E-02   -0.25504E-02  3082   0.956E-02    0.744E-02
RMM:  18    -0.106796936315E+04    0.32658E-02   -0.16203E-02  2320   0.108E-01    0.126E-01
RMM:  19    -0.106797263455E+04   -0.32714E-02   -0.91935E-03  2386   0.104E-01    0.590E-02
RMM:  20    -0.106797198689E+04    0.64767E-03   -0.61009E-04  1873   0.376E-02    0.734E-02
RMM:  21    -0.106797213582E+04   -0.14893E-03   -0.12034E-04  1741   0.149E-02    0.627E-02
RMM:  22    -0.106797355451E+04   -0.14187E-02   -0.59845E-03  2204   0.589E-02    0.405E-02
RMM:  23    -0.106797470555E+04   -0.11510E-02   -0.84270E-03  2466   0.488E-02    0.626E-02
RMM:  24    -0.106797431862E+04    0.38692E-03   -0.34098E-04  1776   0.232E-02    0.691E-02
RMM:  25    -0.106797443131E+04   -0.11269E-03   -0.58661E-05  1705   0.134E-02    0.667E-02
RMM:  26    -0.106797488497E+04   -0.45365E-03   -0.43805E-04  1757   0.201E-02    0.588E-02
RMM:  27    -0.106797610749E+04   -0.12225E-02   -0.55653E-03  2223   0.541E-02    0.428E-02
RMM:  28    -0.106797707952E+04   -0.97203E-03   -0.67064E-03  2303   0.415E-02    0.636E-02
RMM:  29    -0.106797709179E+04   -0.12263E-04   -0.99508E-05  1749   0.180E-02
   7 F= -.10679582E+04 E0= -.10679033E+04  d E =-.287099E+00  mag=    11.9883
       N       E                     dE             d eps       ncg     rms          rms(c)
DAV:   1    -0.106803593117E+04   -0.58852E-01   -0.28439E+01  3328   0.419E+00    0.147E+00
RMM:   2    -0.106812009181E+04   -0.84161E-01   -0.59394E-01  3767   0.120E+00    0.379E+00
RMM:   3    -0.106810803481E+04    0.12057E-01   -0.18362E-01  4265   0.551E-01    0.295E+00
RMM:   4    -0.106811749604E+04   -0.94612E-02   -0.91549E-02  4286   0.351E-01    0.319E+00
RMM:   5    -0.106809453393E+04    0.22962E-01   -0.39303E-02  4194   0.252E-01    0.119E+00
RMM:   6    -0.106809601291E+04   -0.14790E-02   -0.27254E-02  4204   0.183E-01    0.147E+00
RMM:   7    -0.106810064068E+04   -0.46278E-02   -0.28312E-02  4006   0.179E-01    0.175E+00
RMM:   8    -0.106809379023E+04    0.68505E-02   -0.18194E-02  3457   0.169E-01    0.565E-01
RMM:   9    -0.106809554104E+04   -0.17508E-02   -0.10482E-02  3149   0.116E-01    0.864E-01
RMM:  10    -0.106809417445E+04    0.13666E-02   -0.54938E-03  2925   0.102E-01    0.328E-01
RMM:  11    -0.106809461124E+04   -0.43679E-03   -0.25894E-03  2919   0.601E-02    0.411E-01
RMM:  12    -0.106809484543E+04   -0.23419E-03   -0.20070E-03  2716   0.588E-02    0.142E-01
RMM:  13    -0.106809552956E+04   -0.68413E-03   -0.29691E-03  2635   0.502E-02    0.196E-01
RMM:  14    -0.106809582526E+04   -0.29570E-03   -0.77243E-04  2393   0.389E-02    0.954E-02
RMM:  15    -0.106809672771E+04   -0.90245E-03   -0.32656E-03  2512   0.538E-02    0.811E-02
RMM:  16    -0.106809845220E+04   -0.17245E-02   -0.11252E-02  2849   0.716E-02    0.122E-01
RMM:  17    -0.106809884903E+04   -0.39683E-03   -0.92524E-04  2413   0.389E-02    0.807E-02
RMM:  18    -0.106809958044E+04   -0.73142E-03   -0.24887E-03  2433   0.463E-02    0.786E-02
RMM:  19    -0.106810040369E+04   -0.82325E-03   -0.44109E-03  2601   0.469E-02    0.926E-02
RMM:  20    -0.106810150255E+04   -0.10989E-02   -0.39449E-03  2600   0.619E-02    0.643E-02
RMM:  21    -0.106810323422E+04   -0.17317E-02   -0.15650E-02  2918   0.898E-02    0.351E-02
RMM:  22    -0.106810470388E+04   -0.14697E-02   -0.14774E-02  2706   0.640E-02    0.657E-02
RMM:  23    -0.106810496710E+04   -0.26322E-03   -0.49412E-04  2160   0.306E-02    0.631E-02
RMM:  24    -0.106810555749E+04   -0.59039E-03   -0.15146E-03  2339   0.393E-02    0.529E-02
RMM:  25    -0.106810715182E+04   -0.15943E-02   -0.13592E-02  2781   0.896E-02    0.264E-02
RMM:  26    -0.106810845127E+04   -0.12994E-02   -0.12631E-02  2660   0.584E-02    0.572E-02
RMM:  27    -0.106810843427E+04    0.16996E-04   -0.17847E-04  2046   0.251E-02
   8 F= -.10680924E+04 E0= -.10680393E+04  d E =-.134227E+00  mag=    11.9865
       N       E                     dE             d eps       ncg     rms          rms(c)
DAV:   1    -0.106810946416E+04   -0.10129E-02   -0.16040E-01  3888   0.317E-01    0.127E-01
RMM:   2    -0.106811117308E+04   -0.17089E-02   -0.98945E-03  3287   0.125E-01    0.354E-01
RMM:   3    -0.106811123523E+04   -0.62150E-04   -0.32048E-03  2618   0.529E-02    0.233E-01
RMM:   4    -0.106811155122E+04   -0.31599E-03   -0.11376E-03  2327   0.440E-02    0.212E-01
RMM:   5    -0.106811184462E+04   -0.29340E-03   -0.10926E-03  2146   0.357E-02    0.125E-01
RMM:   6    -0.106811206145E+04   -0.21683E-03   -0.61057E-04  2047   0.279E-02    0.107E-01
RMM:   7    -0.106811274013E+04   -0.67868E-03   -0.18760E-03  2200   0.405E-02    0.128E-01
RMM:   8    -0.106811353055E+04   -0.79041E-03   -0.45560E-03  2383   0.449E-02    0.841E-02
RMM:   9    -0.106811382364E+04   -0.29309E-03   -0.46988E-04  1997   0.280E-02    0.893E-02
RMM:  10    -0.106811449234E+04   -0.66870E-03   -0.20853E-03  2181   0.375E-02    0.797E-02
RMM:  11    -0.106811521840E+04   -0.72606E-03   -0.33628E-03  2218   0.387E-02    0.135E-01
RMM:  12    -0.106811705642E+04   -0.18380E-02   -0.13280E-02  2646   0.964E-02    0.742E-02
RMM:  13    -0.106811829433E+04   -0.12379E-02   -0.12044E-02  2640   0.571E-02    0.881E-02
RMM:  14    -0.106812004416E+04   -0.17498E-02   -0.15194E-02  2656   0.104E-01    0.433E-02
RMM:  15    -0.106812109047E+04   -0.10463E-02   -0.10068E-02  2616   0.511E-02    0.919E-02
RMM:  16    -0.106812206239E+04   -0.97192E-03   -0.39715E-03  2297   0.625E-02    0.464E-02
RMM:  17    -0.106812355243E+04   -0.14900E-02   -0.13691E-02  2775   0.713E-02    0.595E-02
RMM:  18    -0.106812047067E+04    0.30818E-02   -0.18302E-02  2349   0.113E-01    0.104E-01
RMM:  19    -0.106812308663E+04   -0.26160E-02   -0.54534E-03  2223   0.833E-02    0.495E-02
RMM:  20    -0.106812338069E+04   -0.29406E-03   -0.13212E-03  1967   0.211E-02    0.587E-02
RMM:  21    -0.106812322513E+04    0.15556E-03   -0.92884E-05  1717   0.165E-02    0.584E-02
RMM:  22    -0.106812427644E+04   -0.10513E-02   -0.37761E-03  2125   0.516E-02    0.359E-02
RMM:  23    -0.106812530931E+04   -0.10329E-02   -0.78649E-03  2519   0.474E-02    0.539E-02
RMM:  24    -0.106812489633E+04    0.41299E-03   -0.48450E-04  1796   0.269E-02    0.618E-02
RMM:  25    -0.106812504936E+04   -0.15303E-03   -0.51077E-05  1691   0.123E-02    0.575E-02
RMM:  26    -0.106812571178E+04   -0.66243E-03   -0.13779E-03  1866   0.307E-02    0.436E-02
RMM:  27    -0.106812666260E+04   -0.95082E-03   -0.58176E-03  2226   0.491E-02    0.316E-02
RMM:  28    -0.106812740807E+04   -0.74547E-03   -0.56947E-03  2128   0.383E-02    0.528E-02
RMM:  29    -0.106812758296E+04   -0.17489E-03   -0.20644E-04  1731   0.199E-02    0.508E-02
RMM:  30    -0.106812739415E+04    0.18881E-03   -0.89489E-05  1691   0.178E-02    0.564E-02
RMM:  31    -0.106812785341E+04   -0.45925E-03   -0.63787E-04  1802   0.253E-02    0.469E-02
RMM:  32    -0.106812847347E+04   -0.62006E-03   -0.25666E-03  2086   0.301E-02    0.507E-02
RMM:  33    -0.106812852358E+04   -0.50112E-04   -0.18958E-04  1737   0.156E-02
   9 F= -.10681121E+04 E0= -.10680588E+04  d E =-.153833E+00  mag=    11.9863
       N       E                     dE             d eps       ncg     rms          rms(c)
DAV:   1    -0.106816254532E+04   -0.34072E-01   -0.14084E+01  3376   0.311E+00    0.110E+00
RMM:   2    -0.106824333390E+04   -0.80789E-01   -0.38780E-01  3804   0.969E-01    0.432E+00
RMM:   3    -0.106819978254E+04    0.43551E-01   -0.11625E-01  4109   0.478E-01    0.209E+00
RMM:   4    -0.106820655320E+04   -0.67707E-02   -0.51423E-02  4310   0.251E-01    0.239E+00
RMM:   5    -0.106819424788E+04    0.12305E-01   -0.15889E-02  3987   0.161E-01    0.779E-01
RMM:   6    -0.106819476460E+04   -0.51673E-03   -0.10271E-02  3446   0.117E-01    0.104E+00
RMM:   7    -0.106819590308E+04   -0.11385E-02   -0.12887E-02  3243   0.126E-01    0.105E+00
RMM:   8    -0.106819465164E+04    0.12514E-02   -0.85794E-03  2962   0.111E-01    0.584E-01
RMM:   9    -0.106819504134E+04   -0.38970E-03   -0.54223E-03  2809   0.912E-02    0.615E-01
RMM:  10    -0.106819466603E+04    0.37532E-03   -0.35907E-03  2739   0.756E-02    0.335E-01
RMM:  11    -0.106819468220E+04   -0.16172E-04   -0.13296E-03  2648   0.487E-02    0.215E-01
RMM:  12    -0.106819517956E+04   -0.49736E-03   -0.18136E-03  2567   0.531E-02    0.166E-01
RMM:  13    -0.106819540092E+04   -0.22136E-03   -0.13828E-03  2438   0.379E-02    0.120E-01
RMM:  14    -0.106819593438E+04   -0.53346E-03   -0.13820E-03  2414   0.439E-02    0.883E-02
RMM:  15    -0.106819638010E+04   -0.44572E-03   -0.20167E-03  2496   0.386E-02    0.890E-02
RMM:  16    -0.106819695234E+04   -0.57224E-03   -0.14029E-03  2386   0.427E-02    0.725E-02
RMM:  17    -0.106819789916E+04   -0.94681E-03   -0.49423E-03  2713   0.503E-02    0.110E-01
RMM:  18    -0.106819839768E+04   -0.49852E-03   -0.11930E-03  2377   0.420E-02    0.732E-02
RMM:  19    -0.106819977001E+04   -0.13723E-02   -0.12039E-02  2798   0.856E-02    0.534E-02
RMM:  20    -0.106820118526E+04   -0.14153E-02   -0.14502E-02  2823   0.655E-02    0.604E-02
RMM:  21    -0.106820192603E+04   -0.74078E-03   -0.27625E-03  2522   0.536E-02    0.490E-02
RMM:  22    -0.106820289068E+04   -0.96465E-03   -0.71215E-03  2788   0.582E-02    0.509E-02
RMM:  23    -0.106820413141E+04   -0.12407E-02   -0.81351E-03  2744   0.831E-02    0.260E-02
RMM:  24    -0.106820490603E+04   -0.77462E-03   -0.68107E-03  2658   0.467E-02    0.501E-02
RMM:  25    -0.106820590292E+04   -0.99689E-03   -0.50241E-03  2575   0.680E-02    0.287E-02
RMM:  26    -0.106820688409E+04   -0.98117E-03   -0.85654E-03  2755   0.580E-02    0.479E-02
RMM:  27    -0.106820698408E+04   -0.99988E-04   -0.22215E-04  2024   0.265E-02
  10 F= -.10681899E+04 E0= -.10681393E+04  d E =-.778676E-01  mag=    11.9889
       N       E                     dE             d eps       ncg     rms          rms(c)
DAV:   1    -0.106820968297E+04   -0.27989E-02   -0.32364E-01  3776   0.473E-01    0.168E-01
RMM:   2    -0.106821197531E+04   -0.22923E-02   -0.12129E-02  3637   0.157E-01    0.584E-01
RMM:   3    -0.106821151874E+04    0.45658E-03   -0.38822E-03  2847   0.741E-02    0.328E-01
RMM:   4    -0.106821185775E+04   -0.33901E-03   -0.15435E-03  2702   0.547E-02    0.358E-01
RMM:   5    -0.106821185002E+04    0.77308E-05   -0.90960E-04  2431   0.420E-02
  11 F= -.10681946E+04 E0= -.10681446E+04  d E =-.825653E-01  mag=    11.9889
       N       E                     dE             d eps       ncg     rms          rms(c)
DAV:   1    -0.106821152742E+04    0.33033E-03   -0.12959E+00  3392   0.948E-01    0.376E-01
RMM:   2    -0.106822311864E+04   -0.11591E-01   -0.39889E-02  3825   0.302E-01    0.193E+00
RMM:   3    -0.106821535058E+04    0.77681E-02   -0.13064E-02  3555   0.161E-01    0.460E-01
RMM:   4    -0.106821644057E+04   -0.10900E-02   -0.67388E-03  3334   0.987E-02    0.744E-01
RMM:   5    -0.106821533975E+04    0.11008E-02   -0.26535E-03  2721   0.732E-02    0.244E-01
RMM:   6    -0.106821578831E+04   -0.44856E-03   -0.20005E-03  2703   0.537E-02    0.413E-01
RMM:   7    -0.106821652908E+04   -0.74077E-03   -0.32574E-03  2725   0.693E-02    0.401E-01
RMM:   8    -0.106821667837E+04   -0.14930E-03   -0.31636E-03  2704   0.556E-02    0.207E-01
RMM:   9    -0.106821694024E+04   -0.26186E-03   -0.99676E-04  2509   0.452E-02    0.217E-01
RMM:  10    -0.106821722447E+04   -0.28424E-03   -0.15073E-03  2428   0.394E-02    0.114E-01
RMM:  11    -0.106821734499E+04   -0.12052E-03   -0.35328E-04  2239   0.317E-02    0.722E-02
RMM:  12    -0.106821776613E+04   -0.42113E-03   -0.11094E-03  2333   0.342E-02    0.623E-02
RMM:  13    -0.106821820493E+04   -0.43880E-03   -0.18372E-03  2419   0.377E-02    0.101E-01
RMM:  14    -0.106821888366E+04   -0.67873E-03   -0.22571E-03  2466   0.472E-02    0.609E-02
RMM:  15    -0.106821979260E+04   -0.90894E-03   -0.62471E-03  2689   0.545E-02    0.892E-02
RMM:  16    -0.106822038080E+04   -0.58820E-03   -0.20614E-03  2499   0.487E-02    0.551E-02
RMM:  17    -0.106822150539E+04   -0.11246E-02   -0.10773E-02  2736   0.805E-02    0.473E-02
RMM:  18    -0.106822240599E+04   -0.90059E-03   -0.85801E-03  2652   0.510E-02    0.941E-02
RMM:  19    -0.106822348275E+04   -0.10768E-02   -0.73493E-03  2660   0.769E-02    0.484E-02
RMM:  20    -0.106822453228E+04   -0.10495E-02   -0.10749E-02  2794   0.626E-02    0.513E-02
RMM:  21    -0.106822385604E+04    0.67624E-03   -0.16152E-03  2145   0.455E-02    0.643E-02
RMM:  22    -0.106822472496E+04   -0.86892E-03   -0.17955E-03  2206   0.498E-02    0.413E-02
RMM:  23    -0.106822489266E+04   -0.16770E-03   -0.83953E-04  2032   0.245E-02    0.436E-02
RMM:  24    -0.106822571839E+04   -0.82573E-03   -0.38735E-03  2438   0.588E-02    0.279E-02
RMM:  25    -0.106822644881E+04   -0.73042E-03   -0.58282E-03  2536   0.462E-02    0.446E-02
RMM:  26    -0.106822619052E+04    0.25829E-03   -0.30436E-04  1913   0.273E-02    0.514E-02
RMM:  27    -0.106822636039E+04   -0.16987E-03   -0.87423E-05  1853   0.184E-02    0.474E-02
RMM:  28    -0.106822707513E+04   -0.71474E-03   -0.28264E-03  2222   0.462E-02    0.324E-02
RMM:  29    -0.106822771699E+04   -0.64185E-03   -0.46462E-03  2416   0.392E-02    0.478E-02
RMM:  30    -0.106822770041E+04    0.16576E-04   -0.87574E-05  1862   0.197E-02
  12 F= -.10682101E+04 E0= -.10681609E+04  d E =-.980796E-01  mag=    11.9896
       N       E                     dE             d eps       ncg     rms          rms(c)
DAV:   1    -0.106825906350E+04   -0.31347E-01   -0.74290E+00  3328   0.222E+00    0.752E-01
RMM:   2    -0.106828624758E+04   -0.27184E-01   -0.17009E-01  3808   0.603E-01    0.214E+00
RMM:   3    -0.106828039458E+04    0.58530E-02   -0.46341E-02  4112   0.285E-01    0.139E+00
RMM:   4    -0.106828323516E+04   -0.28406E-02   -0.23447E-02  3865   0.179E-01    0.148E+00
RMM:   5    -0.106827716891E+04    0.60663E-02   -0.90328E-03  3295   0.128E-01    0.441E-01
RMM:   6    -0.106827859288E+04   -0.14240E-02   -0.79232E-03  3023   0.102E-01    0.855E-01
RMM:   7    -0.106828000857E+04   -0.14157E-02   -0.80366E-03  2937   0.104E-01    0.105E+00
RMM:   8    -0.106827841838E+04    0.15902E-02   -0.58826E-03  2838   0.929E-02    0.380E-01
RMM:   9    -0.106827892088E+04   -0.50250E-03   -0.30414E-03  2765   0.687E-02    0.515E-01
RMM:  10    -0.106827856801E+04    0.35286E-03   -0.18283E-03  2606   0.574E-02    0.195E-01
RMM:  11    -0.106827861003E+04   -0.42015E-04   -0.75776E-04  2303   0.383E-02
  13 F= -.10682614E+04 E0= -.10682139E+04  d E =-.512973E-01  mag=    11.9902
       N       E                     dE             d eps       ncg     rms          rms(c)
DAV:   1    -0.106828297854E+04   -0.44105E-02   -0.81965E-01  3456   0.738E-01    0.279E-01
RMM:   2    -0.106828757407E+04   -0.45955E-02   -0.23406E-02  3747   0.224E-01    0.917E-01
RMM:   3    -0.106828580612E+04    0.17680E-02   -0.71001E-03  3295   0.113E-01    0.433E-01
RMM:   4    -0.106828652105E+04   -0.71493E-03   -0.35035E-03  3036   0.759E-02    0.562E-01
RMM:   5    -0.106828607011E+04    0.45094E-03   -0.16782E-03  2626   0.584E-02    0.231E-01
RMM:   6    -0.106828620097E+04   -0.13087E-03   -0.13672E-03  2507   0.485E-02    0.222E-01
RMM:   7    -0.106828699678E+04   -0.79581E-03   -0.23328E-03  2546   0.563E-02    0.431E-01
RMM:   8    -0.106828719699E+04   -0.20021E-03   -0.35178E-03  2591   0.552E-02    0.120E-01
RMM:   9    -0.106828751277E+04   -0.31578E-03   -0.11203E-03  2385   0.422E-02    0.152E-01
RMM:  10    -0.106828775264E+04   -0.23987E-03   -0.12047E-03  2182   0.360E-02    0.709E-02
RMM:  11    -0.106828791483E+04   -0.16218E-03   -0.35594E-04  2029   0.284E-02    0.612E-02
RMM:  12    -0.106828823671E+04   -0.32189E-03   -0.83972E-04  2104   0.317E-02    0.618E-02
RMM:  13    -0.106828849313E+04   -0.25642E-03   -0.10179E-03  2073   0.299E-02    0.731E-02
RMM:  14    -0.106828906817E+04   -0.57504E-03   -0.18801E-03  2196   0.440E-02    0.561E-02
RMM:  15    -0.106828980963E+04   -0.74146E-03   -0.48274E-03  2475   0.476E-02    0.973E-02
RMM:  16    -0.106829098721E+04   -0.11776E-02   -0.10102E-02  2592   0.908E-02    0.470E-02
RMM:  17    -0.106829195512E+04   -0.96791E-03   -0.10281E-02  2814   0.568E-02    0.782E-02
RMM:  18    -0.106829248965E+04   -0.53453E-03   -0.20402E-03  2211   0.508E-02    0.484E-02
RMM:  19    -0.106829330097E+04   -0.81133E-03   -0.67261E-03  2629   0.553E-02    0.525E-02
RMM:  20    -0.106829087930E+04    0.24217E-02   -0.16615E-02  2461   0.110E-01    0.938E-02
RMM:  21    -0.106829262165E+04   -0.17423E-02   -0.25429E-03  2107   0.646E-02    0.499E-02
RMM:  22    -0.106829206424E+04    0.55741E-03   -0.10813E-03  1896   0.351E-02    0.548E-02
RMM:  23    -0.106829283001E+04   -0.76577E-03   -0.17549E-03  2036   0.474E-02    0.328E-02
RMM:  24    -0.106829325277E+04   -0.42276E-03   -0.23513E-03  2134   0.295E-02    0.425E-02
RMM:  25    -0.106829345149E+04   -0.19871E-03   -0.29128E-04  1811   0.234E-02    0.387E-02
RMM:  26    -0.106829347925E+04   -0.27768E-04   -0.13652E-04  1751   0.148E-02
  14 F= -.10682765E+04 E0= -.10682296E+04  d E =-.663247E-01  mag=    11.9910
       N       E                     dE             d eps       ncg     rms          rms(c)
DAV:   1    -0.106833068284E+04   -0.37231E-01   -0.37004E+00  3328   0.152E+00    0.517E-01
RMM:   2    -0.106834265053E+04   -0.11968E-01   -0.76122E-02  3823   0.400E-01    0.143E+00
RMM:   3    -0.106834100857E+04    0.16420E-02   -0.21006E-02  4191   0.183E-01    0.978E-01
RMM:   4    -0.106834096677E+04    0.41800E-04   -0.94598E-03  3598   0.116E-01    0.681E-01
RMM:   5    -0.106833958187E+04    0.13849E-02   -0.43013E-03  2906   0.907E-02    0.363E-01
RMM:   6    -0.106834080239E+04   -0.12205E-02   -0.38613E-03  2826   0.732E-02    0.718E-01
RMM:   7    -0.106834064223E+04    0.16016E-03   -0.58944E-03  2824   0.866E-02    0.374E-01
RMM:   8    -0.106834073379E+04   -0.91554E-04   -0.26058E-03  2690   0.524E-02    0.318E-01
RMM:   9    -0.106834089839E+04   -0.16461E-03   -0.12405E-03  2565   0.479E-02    0.144E-01
RMM:  10    -0.106834097075E+04   -0.72354E-04   -0.65159E-04  2292   0.328E-02
  15 F= -.10683245E+04 E0= -.10682783E+04  d E =-.480285E-01  mag=    11.9913
       N       E                     dE             d eps       ncg     rms          rms(c)
DAV:   1    -0.106835549252E+04   -0.14594E-01   -0.14819E+00  3392   0.963E-01    0.341E-01
RMM:   2    -0.106836141434E+04   -0.59218E-02   -0.33396E-02  3793   0.269E-01    0.107E+00
RMM:   3    -0.106835985518E+04    0.15592E-02   -0.95556E-03  3815   0.126E-01    0.581E-01
RMM:   4    -0.106836043612E+04   -0.58094E-03   -0.54130E-03  3276   0.909E-02    0.532E-01
RMM:   5    -0.106835973840E+04    0.69771E-03   -0.23936E-03  2735   0.697E-02    0.288E-01
RMM:   6    -0.106836005356E+04   -0.31516E-03   -0.16404E-03  2645   0.504E-02    0.370E-01
RMM:   7    -0.106836079355E+04   -0.73999E-03   -0.43346E-03  2738   0.730E-02    0.376E-01
RMM:   8    -0.106836083391E+04   -0.40359E-04   -0.24195E-03  2614   0.468E-02    0.171E-01
RMM:   9    -0.106836112204E+04   -0.28813E-03   -0.10149E-03  2490   0.446E-02    0.162E-01
RMM:  10    -0.106836123711E+04   -0.11507E-03   -0.83459E-04  2312   0.346E-02    0.689E-02
RMM:  11    -0.106836140465E+04   -0.16754E-03   -0.35553E-04  2194   0.293E-02    0.632E-02
RMM:  12    -0.106836168278E+04   -0.27813E-03   -0.81537E-04  2266   0.307E-02    0.485E-02
RMM:  13    -0.106836210061E+04   -0.41783E-03   -0.18235E-03  2391   0.380E-02    0.791E-02
RMM:  14    -0.106836251015E+04   -0.40954E-03   -0.12240E-03  2373   0.372E-02    0.492E-02
RMM:  15    -0.106836322770E+04   -0.71754E-03   -0.46975E-03  2543   0.575E-02    0.877E-02
RMM:  16    -0.106836404031E+04   -0.81261E-03   -0.77727E-03  2688   0.541E-02    0.696E-02
RMM:  17    -0.106836465440E+04   -0.61409E-03   -0.30311E-03  2549   0.561E-02    0.525E-02
RMM:  18    -0.106836540572E+04   -0.75133E-03   -0.62856E-03  2644   0.533E-02    0.469E-02
RMM:  19    -0.106836631370E+04   -0.90798E-03   -0.72145E-03  2708   0.792E-02    0.338E-02
RMM:  20    -0.106836687206E+04   -0.55836E-03   -0.53122E-03  2565   0.427E-02    0.519E-02
RMM:  21    -0.106836758818E+04   -0.71612E-03   -0.41163E-03  2481   0.636E-02    0.267E-02
RMM:  22    -0.106836851329E+04   -0.92511E-03   -0.98932E-03  2768   0.650E-02    0.394E-02
RMM:  23    -0.106836787026E+04    0.64303E-03   -0.18827E-03  2113   0.489E-02    0.550E-02
RMM:  24    -0.106836840235E+04   -0.53208E-03   -0.58358E-04  1950   0.351E-02    0.387E-02
RMM:  25    -0.106836826863E+04    0.13372E-03   -0.91710E-05  1839   0.222E-02    0.418E-02
RMM:  26    -0.106836886830E+04   -0.59968E-03   -0.23562E-03  2165   0.467E-02    0.263E-02
RMM:  27    -0.106836940378E+04   -0.53547E-03   -0.40759E-03  2492   0.387E-02    0.397E-02
RMM:  28    -0.106836904363E+04    0.36014E-03   -0.63215E-04  1920   0.281E-02    0.495E-02
RMM:  29    -0.106836929704E+04   -0.25340E-03   -0.14748E-04  1817   0.207E-02    0.411E-02
RMM:  30    -0.106836953977E+04   -0.24273E-03   -0.42759E-04  1848   0.215E-02    0.357E-02
RMM:  31    -0.106836992266E+04   -0.38289E-03   -0.17177E-03  2085   0.257E-02    0.405E-02
RMM:  32    -0.106836999693E+04   -0.74276E-04   -0.13248E-04  1841   0.184E-02
  16 F= -.10683537E+04 E0= -.10683081E+04  d E =-.772639E-01  mag=    11.9921
       N       E                     dE             d eps       ncg     rms          rms(c)
DAV:   1    -0.106836738108E+04    0.25416E-02   -0.59219E+00  3328   0.192E+00    0.656E-01
RMM:   2    -0.106838630218E+04   -0.18921E-01   -0.12049E-01  3831   0.504E-01    0.183E+00
RMM:   3    -0.106838320661E+04    0.30956E-02   -0.33079E-02  4287   0.233E-01    0.125E+00
RMM:   4    -0.106838348473E+04   -0.27812E-03   -0.16293E-02  3981   0.148E-01    0.960E-01
RMM:   5    -0.106838078457E+04    0.27002E-02   -0.69857E-03  3184   0.109E-01    0.551E-01
RMM:   6    -0.106838167824E+04   -0.89367E-03   -0.49427E-03  2919   0.825E-02    0.767E-01
RMM:   7    -0.106838215843E+04   -0.48019E-03   -0.66132E-03  2952   0.935E-02    0.724E-01
RMM:   8    -0.106838150928E+04    0.64915E-03   -0.34240E-03  2752   0.699E-02    0.286E-01
RMM:   9    -0.106838166950E+04   -0.16022E-03   -0.18292E-03  2679   0.559E-02    0.171E-01
RMM:  10    -0.106838172412E+04   -0.54614E-04   -0.75908E-04  2406   0.368E-02
  17 F= -.10683660E+04 E0= -.10683211E+04  d E =-.895098E-01  mag=    11.9924
       N       E                     dE             d eps       ncg     rms          rms(c)
DAV:   1    -0.106839600147E+04   -0.14332E-01   -0.32780E+00  3488   0.141E+00    0.495E-01
RMM:   2    -0.106840697326E+04   -0.10972E-01   -0.56822E-02  3812   0.350E-01    0.155E+00
RMM:   3    -0.106840381895E+04    0.31543E-02   -0.17989E-02  3871   0.172E-01    0.855E-01
RMM:   4    -0.106840458707E+04   -0.76812E-03   -0.89036E-03  3413   0.115E-01    0.740E-01
RMM:   5    -0.106840307545E+04    0.15116E-02   -0.40326E-03  2828   0.895E-02    0.402E-01
RMM:   6    -0.106840361999E+04   -0.54454E-03   -0.30471E-03  2780   0.669E-02    0.515E-01
RMM:   7    -0.106840427241E+04   -0.65242E-03   -0.50628E-03  2749   0.828E-02    0.509E-01
RMM:   8    -0.106840400049E+04    0.27192E-03   -0.26591E-03  2687   0.552E-02    0.257E-01
RMM:   9    -0.106840413511E+04   -0.13462E-03   -0.81493E-04  2474   0.423E-02    0.237E-01
RMM:  10    -0.106840428338E+04   -0.14827E-03   -0.99548E-04  2400   0.406E-02    0.820E-02
RMM:  11    -0.106840440698E+04   -0.12360E-03   -0.65200E-04  2187   0.299E-02    0.791E-02
RMM:  12    -0.106840465075E+04   -0.24377E-03   -0.55016E-04  2229   0.290E-02    0.514E-02
RMM:  13    -0.106840485246E+04   -0.20171E-03   -0.73764E-04  2165   0.292E-02    0.626E-02
RMM:  14    -0.106840508089E+04   -0.22843E-03   -0.44604E-04  2110   0.269E-02    0.486E-02
RMM:  15    -0.106840540320E+04   -0.32231E-03   -0.12234E-03  2222   0.310E-02    0.709E-02
RMM:  16    -0.106840605468E+04   -0.65148E-03   -0.31281E-03  2463   0.524E-02    0.507E-02
RMM:  17    -0.106840688446E+04   -0.82978E-03   -0.73561E-03  2735   0.560E-02    0.814E-02
RMM:  18    -0.106840735246E+04   -0.46800E-03   -0.19679E-03  2394   0.480E-02    0.399E-02
RMM:  19    -0.106840807232E+04   -0.71986E-03   -0.75280E-03  2662   0.680E-02    0.360E-02
RMM:  20    -0.106840866038E+04   -0.58806E-03   -0.58353E-03  2475   0.444E-02    0.419E-02
RMM:  21    -0.106840877053E+04   -0.11016E-03   -0.19863E-04  1885   0.244E-02    0.404E-02
RMM:  22    -0.106840921527E+04   -0.44474E-03   -0.18567E-03  2263   0.411E-02    0.296E-02
RMM:  23    -0.106840989589E+04   -0.68062E-03   -0.67239E-03  2560   0.635E-02    0.148E-02
RMM:  24    -0.106841068586E+04   -0.78998E-03   -0.87721E-03  2584   0.572E-02    0.357E-02
RMM:  25    -0.106841078488E+04   -0.99014E-04   -0.24987E-04  1887   0.247E-02
  18 F= -.10683947E+04 E0= -.10683503E+04  d E =-.287412E-01  mag=    11.9931
       N       E                     dE             d eps       ncg     rms          rms(c)
DAV:   1    -0.106841259709E+04   -0.19112E-02   -0.94805E-02  3888   0.243E-01    0.904E-02
RMM:   2    -0.106841337486E+04   -0.77777E-03   -0.43572E-03  2809   0.805E-02    0.259E-01
RMM:   3    -0.106841341529E+04   -0.40425E-04   -0.14846E-03  2365   0.408E-02    0.170E-01
RMM:   4    -0.106841362334E+04   -0.20805E-03   -0.72280E-04  2032   0.358E-02    0.114E-01
RMM:   5    -0.106841370954E+04   -0.86195E-04   -0.41946E-04  1877   0.250E-02
  19 F= -.10683976E+04 E0= -.10683533E+04  d E =-.316544E-01  mag=    11.9931
       N       E                     dE             d eps       ncg     rms          rms(c)
DAV:   1    -0.106841587353E+04   -0.22502E-02   -0.37962E-01  3456   0.482E-01    0.199E-01
RMM:   2    -0.106841889781E+04   -0.30243E-02   -0.97387E-03  3396   0.134E-01    0.971E-01
RMM:   3    -0.106841711367E+04    0.17841E-02   -0.30976E-03  2755   0.766E-02    0.231E-01
RMM:   4    -0.106841769365E+04   -0.57998E-03   -0.19451E-03  2544   0.568E-02    0.480E-01
RMM:   5    -0.106841747349E+04    0.22016E-03   -0.10868E-03  2225   0.443E-02    0.196E-01
RMM:   6    -0.106841758735E+04   -0.11386E-03   -0.84963E-04  2176   0.386E-02    0.161E-01
RMM:   7    -0.106841820459E+04   -0.61724E-03   -0.23104E-03  2397   0.497E-02    0.287E-01
RMM:   8    -0.106841841281E+04   -0.20821E-03   -0.25487E-03  2396   0.424E-02    0.130E-01
RMM:   9    -0.106841848078E+04   -0.67978E-04   -0.27902E-04  1963   0.249E-02
  20 F= -.10684023E+04 E0= -.10683580E+04  d E =-.363521E-01  mag=    11.9931
       N       E                     dE             d eps       ncg     rms          rms(c)
DAV:   1    -0.106841603504E+04    0.23778E-02   -0.15161E+00  3392   0.960E-01    0.331E-01
RMM:   2    -0.106842135431E+04   -0.53193E-02   -0.26744E-02  3784   0.237E-01    0.111E+00
RMM:   3    -0.106841978286E+04    0.15715E-02   -0.82194E-03  3260   0.115E-01    0.560E-01
RMM:   4    -0.106842014552E+04   -0.36266E-03   -0.36760E-03  2992   0.798E-02    0.516E-01
RMM:   5    -0.106841971032E+04    0.43520E-03   -0.15994E-03  2572   0.571E-02    0.307E-01
RMM:   6    -0.106842005302E+04   -0.34270E-03   -0.17340E-03  2587   0.533E-02    0.341E-01
RMM:   7    -0.106842061841E+04   -0.56539E-03   -0.32326E-03  2664   0.641E-02    0.397E-01
RMM:   8    -0.106842058220E+04    0.36204E-04   -0.24667E-03  2604   0.493E-02    0.157E-01
RMM:   9    -0.106842075543E+04   -0.17323E-03   -0.70613E-04  2266   0.361E-02    0.153E-01
RMM:  10    -0.106842090251E+04   -0.14708E-03   -0.77866E-04  2081   0.317E-02    0.600E-02
RMM:  11    -0.106842105449E+04   -0.15198E-03   -0.38405E-04  2003   0.260E-02    0.584E-02
RMM:  12    -0.106842119697E+04   -0.14248E-03   -0.38701E-04  1988   0.226E-02    0.448E-02
RMM:  13    -0.106842117564E+04    0.21328E-04   -0.56166E-05  1860   0.181E-02
  21 F= -.10684048E+04 E0= -.10683608E+04  d E =-.388730E-01  mag=    11.9932
       N       E                     dE             d eps       ncg     rms          rms(c)
DAV:   1    -0.106842184704E+04   -0.65007E-03   -0.38029E-01  3424   0.483E-01    0.182E-01
RMM:   2    -0.106842399752E+04   -0.21505E-02   -0.95419E-03  3355   0.135E-01    0.683E-01
RMM:   3    -0.106842305873E+04    0.93878E-03   -0.30836E-03  2536   0.734E-02    0.277E-01
RMM:   4    -0.106842336787E+04   -0.30914E-03   -0.15640E-03  2388   0.515E-02    0.342E-01
RMM:   5    -0.106842335518E+04    0.12689E-04   -0.10089E-03  2149   0.403E-02    0.203E-01
RMM:   6    -0.106842342795E+04   -0.72768E-04   -0.63663E-04  1998   0.303E-02
  22 F= -.10684071E+04 E0= -.10683630E+04  d E =-.411461E-01  mag=    11.9932
       N       E                     dE             d eps       ncg     rms          rms(c)
DAV:   1    -0.106843957024E+04   -0.16215E-01   -0.92111E-01  3392   0.862E-01    0.363E-01
RMM:   2    -0.106845439781E+04   -0.14828E-01   -0.42709E-02  3817   0.312E-01    0.231E+00
RMM:   3    -0.106844296696E+04    0.11431E-01   -0.14053E-02  3591   0.173E-01    0.646E-01
RMM:   4    -0.106844234555E+04    0.62141E-03   -0.51686E-03  3093   0.908E-02    0.479E-01
RMM:   5    -0.106844246667E+04   -0.12112E-03   -0.24374E-03  2755   0.667E-02    0.443E-01
RMM:   6    -0.106844220763E+04    0.25904E-03   -0.12301E-03  2572   0.472E-02    0.235E-01
RMM:   7    -0.106844238293E+04   -0.17530E-03   -0.98842E-04  2556   0.450E-02    0.229E-01
RMM:   8    -0.106844270130E+04   -0.31837E-03   -0.22473E-03  2619   0.514E-02    0.164E-01
RMM:   9    -0.106844296667E+04   -0.26537E-03   -0.16325E-03  2503   0.388E-02    0.203E-01
RMM:  10    -0.106844315081E+04   -0.18414E-03   -0.75382E-04  2385   0.363E-02    0.106E-01
RMM:  11    -0.106844322570E+04   -0.74899E-04   -0.46878E-04  2184   0.263E-02
  23 F= -.10684263E+04 E0= -.10683822E+04  d E =-.191773E-01  mag=    11.9934
       N       E                     dE             d eps       ncg     rms          rms(c)
DAV:   1    -0.106844809614E+04   -0.49453E-02   -0.25050E-01  3552   0.451E-01    0.158E-01
RMM:   2    -0.106844989335E+04   -0.17972E-02   -0.90817E-03  3736   0.155E-01    0.596E-01
RMM:   3    -0.106844928493E+04    0.60842E-03   -0.26871E-03  2946   0.721E-02    0.337E-01
RMM:   4    -0.106844941912E+04   -0.13419E-03   -0.13322E-03  2689   0.546E-02    0.295E-01
RMM:   5    -0.106844942415E+04   -0.50345E-05   -0.81143E-04  2420   0.420E-02
  24 F= -.10684323E+04 E0= -.10683882E+04  d E =-.251576E-01  mag=    11.9935
       N       E                     dE             d eps       ncg     rms          rms(c)
DAV:   1    -0.106844973916E+04   -0.32004E-03   -0.10042E+00  3392   0.904E-01    0.337E-01
RMM:   2    -0.106845799481E+04   -0.82557E-02   -0.34823E-02  3813   0.303E-01    0.152E+00
RMM:   3    -0.106845284904E+04    0.51458E-02   -0.10775E-02  4031   0.151E-01    0.463E-01
RMM:   4    -0.106845358122E+04   -0.73218E-03   -0.52451E-03  3472   0.878E-02    0.663E-01
RMM:   5    -0.106845275596E+04    0.82527E-03   -0.22300E-03  2785   0.677E-02    0.315E-01
RMM:   6    -0.106845280750E+04   -0.51545E-04   -0.10690E-03  2612   0.461E-02    0.303E-01
RMM:   7    -0.106845324256E+04   -0.43506E-03   -0.22047E-03  2681   0.610E-02    0.291E-01
RMM:   8    -0.106845337398E+04   -0.13142E-03   -0.20763E-03  2623   0.500E-02    0.226E-01
RMM:   9    -0.106845350427E+04   -0.13029E-03   -0.72440E-04  2464   0.424E-02    0.185E-01
RMM:  10    -0.106845372468E+04   -0.22041E-03   -0.11637E-03  2434   0.418E-02    0.734E-02
RMM:  11    -0.106845389806E+04   -0.17338E-03   -0.90480E-04  2296   0.342E-02    0.862E-02
RMM:  12    -0.106845415100E+04   -0.25294E-03   -0.67617E-04  2319   0.323E-02    0.512E-02
RMM:  13    -0.106845452939E+04   -0.37839E-03   -0.18829E-03  2457   0.391E-02    0.635E-02
RMM:  14    -0.106845465940E+04   -0.13001E-03   -0.25562E-04  2139   0.259E-02    0.441E-02
RMM:  15    -0.106845477686E+04   -0.11746E-03   -0.32905E-04  2123   0.244E-02    0.466E-02
RMM:  16    -0.106845344239E+04    0.13345E-02   -0.82338E-03  2532   0.813E-02    0.986E-02
RMM:  17    -0.106845320219E+04    0.24020E-03   -0.87857E-03  2820   0.500E-02    0.762E-02
RMM:  18    -0.106845252041E+04    0.68177E-03   -0.23873E-03  2484   0.527E-02    0.700E-02
RMM:  19    -0.106845250571E+04    0.14699E-04   -0.12322E-03  2180   0.257E-02    0.568E-02
RMM:  20    -0.106845319803E+04   -0.69231E-03   -0.36239E-03  2364   0.555E-02    0.291E-02
RMM:  21    -0.106845331267E+04   -0.11465E-03   -0.11152E-03  2043   0.198E-02    0.499E-02
RMM:  22    -0.106845339594E+04   -0.83265E-04   -0.19426E-04  1935   0.229E-02
  25 F= -.10684354E+04 E0= -.10683916E+04  d E =-.283087E-01  mag=    11.9938
       N       E                     dE             d eps       ncg     rms          rms(c)
DAV:   1    -0.106845355200E+04   -0.23933E-03   -0.91602E-02  3792   0.272E-01    0.954E-02
RMM:   2    -0.106845439315E+04   -0.84115E-03   -0.50879E-03  3263   0.994E-02    0.268E-01
RMM:   3    -0.106845437255E+04    0.20602E-04   -0.16091E-03  2451   0.462E-02    0.177E-01
RMM:   4    -0.106845456557E+04   -0.19302E-03   -0.60741E-04  2137   0.369E-02    0.223E-01
RMM:   5    -0.106845460484E+04   -0.39276E-04   -0.45524E-04  1990   0.284E-02
[...]
RMM:   2    -0.106936973946E+04   -0.11548E-02   -0.18208E-03  2527   0.550E-02    0.712E-01
RMM:   3    -0.106936873900E+04    0.10005E-02   -0.79929E-04  2153   0.429E-02    0.721E-02
RMM:   4    -0.106936864397E+04    0.95027E-04   -0.92378E-05  1747   0.164E-02
 193 F= -.10693281E+04 E0= -.10692837E+04  d E =-.667132E-03  mag=    11.9150
       N       E                     dE             d eps       ncg     rms          rms(c)
DAV:   1    -0.106936882191E+04   -0.82907E-04   -0.11080E-01  3328   0.346E-01    0.852E-02
RMM:   2    -0.106936942005E+04   -0.59814E-03   -0.34311E-03  3695   0.109E-01    0.351E-01
RMM:   3    -0.106936921007E+04    0.20998E-03   -0.84631E-04  2775   0.455E-02    0.146E-01
RMM:   4    -0.106936924391E+04   -0.33834E-04   -0.39575E-04  2285   0.368E-02
 194 F= -.10693285E+04 E0= -.10692841E+04  d E =-.420340E-03  mag=    11.9148
       N       E                     dE             d eps       ncg     rms          rms(c)
DAV:   1    -0.106936926879E+04   -0.58716E-04   -0.11212E-02  4208   0.124E-01    0.725E-02
RMM:   2    -0.106937002948E+04   -0.76069E-03   -0.18429E-03  2703   0.633E-02    0.508E-01
RMM:   3    -0.106936939226E+04    0.63722E-03   -0.66560E-04  2447   0.430E-02    0.107E-01
RMM:   4    -0.106936934432E+04    0.47945E-04   -0.15075E-04  2049   0.223E-02
 195 F= -.10693285E+04 E0= -.10692841E+04  d E =-.394355E-03  mag=    11.9145
       N       E                     dE             d eps       ncg     rms          rms(c)
DAV:   1    -0.106936933621E+04    0.56055E-04   -0.40994E-02  3360   0.212E-01    0.825E-02
RMM:   2    -0.106937023292E+04   -0.89671E-03   -0.25423E-03  3216   0.834E-02    0.565E-01
RMM:   3    -0.106936957043E+04    0.66249E-03   -0.88681E-04  2555   0.497E-02    0.139E-01
RMM:   4    -0.106936948875E+04    0.81675E-04   -0.25460E-04  2204   0.321E-02
 196 F= -.10693285E+04 E0= -.10692840E+04  d E =-.376576E-03  mag=    11.9143
       N       E                     dE             d eps       ncg     rms          rms(c)
DAV:   1    -0.106936967873E+04   -0.10831E-03   -0.69682E-02  3536   0.255E-01    0.118E-01
RMM:   2    -0.106937182396E+04   -0.21452E-02   -0.45728E-03  3073   0.957E-02    0.890E-01
RMM:   3    -0.106936996802E+04    0.18559E-02   -0.16793E-03  2699   0.671E-02    0.153E-01
RMM:   4    -0.106936985828E+04    0.10973E-03   -0.39042E-04  2301   0.325E-02    0.120E-01
RMM:   5    -0.106936988931E+04   -0.31026E-04   -0.21962E-04  1964   0.252E-02
 197 F= -.10693288E+04 E0= -.10692843E+04  d E =-.314695E-03  mag=    11.9140
       N       E                     dE             d eps       ncg     rms          rms(c)
DAV:   1    -0.106936982596E+04    0.32319E-04   -0.99579E-02  3376   0.304E-01    0.940E-02
RMM:   2    -0.106937071213E+04   -0.88617E-03   -0.28698E-03  3251   0.875E-02    0.523E-01
RMM:   3    -0.106937008140E+04    0.63073E-03   -0.86976E-04  2651   0.480E-02    0.783E-02
RMM:   4    -0.106937017420E+04   -0.92802E-04   -0.37036E-04  2266   0.322E-02
 198 F= -.10693291E+04 E0= -.10692847E+04  d E =-.600020E-03  mag=    11.9138
       N       E                     dE             d eps       ncg     rms          rms(c)
DAV:   1    -0.106937027409E+04   -0.19269E-03   -0.76103E-02  3392   0.267E-01    0.103E-01
RMM:   2    -0.106937133425E+04   -0.10602E-02   -0.32677E-03  3018   0.850E-02    0.579E-01
RMM:   3    -0.106937054363E+04    0.79062E-03   -0.10752E-03  2637   0.539E-02    0.161E-01
RMM:   4    -0.106937050182E+04    0.41805E-04   -0.39473E-04  2213   0.310E-02
 199 F= -.10693294E+04 E0= -.10692850E+04  d E =-.321773E-03  mag=    11.9136
       N       E                     dE             d eps       ncg     rms          rms(c)
DAV:   1    -0.106937042758E+04    0.11605E-03   -0.21295E-01  3328   0.439E-01    0.138E-01
RMM:   2    -0.106937174594E+04   -0.13184E-02   -0.62698E-03  3460   0.123E-01    0.507E-01
RMM:   3    -0.106937097509E+04    0.77084E-03   -0.18471E-03  2756   0.666E-02    0.246E-01
RMM:   4    -0.106937098153E+04   -0.64394E-05   -0.71516E-04  2443   0.399E-02
 200 F= -.10693299E+04 E0= -.10692856E+04  d E =-.822626E-03  mag=    11.9132
       N       E                     dE             d eps       ncg     rms          rms(c)
DAV:   1    -0.106936930950E+04    0.16656E-02   -0.84976E-01  3328   0.872E-01    0.224E-01
RMM:   2    -0.106937132275E+04   -0.20133E-02   -0.16332E-02  3866   0.208E-01    0.371E-01
RMM:   3    -0.106937170005E+04   -0.37730E-03   -0.46977E-03  3167   0.934E-02    0.549E-01
RMM:   4    -0.106937142693E+04    0.27312E-03   -0.17764E-03  2814   0.617E-02    0.360E-01
RMM:   5    -0.106937105698E+04    0.36995E-03   -0.82564E-04  2538   0.469E-02    0.119E-01
RMM:   6    -0.106937117152E+04   -0.11454E-03   -0.64934E-04  2486   0.367E-02    0.219E-01
RMM:   7    -0.106937111436E+04    0.57165E-04   -0.65538E-04  2469   0.368E-02
 201 F= -.10693302E+04 E0= -.10692859E+04  d E =-.112088E-02  mag=    11.9124
       N       E                     dE             d eps       ncg     rms          rms(c)
DAV:   1    -0.106937117474E+04   -0.32202E-05   -0.71303E-02  3904   0.251E-01    0.143E-01
RMM:   2    -0.106937500125E+04   -0.38265E-02   -0.60725E-03  2974   0.102E-01    0.130E+00
RMM:   3    -0.106937162434E+04    0.33769E-02   -0.26225E-03  2675   0.790E-02    0.133E-01
RMM:   4    -0.106937136835E+04    0.25599E-03   -0.50746E-04  2178   0.340E-02    0.106E-01
RMM:   5    -0.106937137851E+04   -0.10162E-04   -0.20135E-04  1958   0.254E-02
 202 F= -.10693305E+04 E0= -.10692863E+04  d E =-.294682E-03  mag=    11.9122
       N       E                     dE             d eps       ncg     rms          rms(c)
DAV:   1    -0.106937141941E+04   -0.51058E-04   -0.38754E-02  3616   0.184E-01    0.103E-01
RMM:   2    -0.106937325102E+04   -0.18316E-02   -0.30034E-03  2792   0.742E-02    0.908E-01
RMM:   3    -0.106937167639E+04    0.15746E-02   -0.12783E-03  2453   0.572E-02    0.631E-02
RMM:   4    -0.106937160373E+04    0.72665E-04   -0.28853E-04  1926   0.258E-02
 203 F= -.10693307E+04 E0= -.10692867E+04  d E =-.540603E-03  mag=    11.9122
       N       E                     dE             d eps       ncg     rms          rms(c)
DAV:   1    -0.106937141263E+04    0.26377E-03   -0.15367E-01  3328   0.361E-01    0.132E-01
RMM:   2    -0.106937344333E+04   -0.20307E-02   -0.52136E-03  3384   0.108E-01    0.875E-01
RMM:   3    -0.106937188359E+04    0.15597E-02   -0.17435E-03  2701   0.662E-02    0.134E-01
RMM:   4    -0.106937185975E+04    0.23834E-04   -0.67804E-04  2372   0.401E-02
 204 F= -.10693310E+04 E0= -.10692870E+04  d E =-.802667E-03  mag=    11.9124
       N       E                     dE             d eps       ncg     rms          rms(c)
DAV:   1    -0.106937204864E+04   -0.16506E-03   -0.50636E-02  3360   0.234E-01    0.131E-01
RMM:   2    -0.106937469463E+04   -0.26460E-02   -0.55959E-03  3084   0.105E-01    0.102E+00
RMM:   3    -0.106937244365E+04    0.22510E-02   -0.20573E-03  2679   0.718E-02    0.204E-01
RMM:   4    -0.106937219601E+04    0.24764E-03   -0.53509E-04  2194   0.363E-02    0.978E-02
RMM:   5    -0.106937225412E+04   -0.58108E-04   -0.27514E-04  1887   0.251E-02
 205 F= -.10693314E+04 E0= -.10692875E+04  d E =-.379850E-03  mag=    11.9128
       N       E                     dE             d eps       ncg     rms          rms(c)
DAV:   1    -0.106937219259E+04    0.34213E-05   -0.23803E-01  3328   0.485E-01    0.130E-01
RMM:   2    -0.106937330492E+04   -0.11123E-02   -0.60742E-03  3760   0.137E-01    0.479E-01
RMM:   3    -0.106937285346E+04    0.45145E-03   -0.16658E-03  2923   0.607E-02    0.177E-01
RMM:   4    -0.106937293457E+04   -0.81103E-04   -0.63951E-04  2451   0.418E-02
 206 F= -.10693319E+04 E0= -.10692880E+04  d E =-.945773E-03  mag=    11.9135
       N       E                     dE             d eps       ncg     rms          rms(c)
DAV:   1    -0.106937284440E+04    0.90664E-05   -0.33723E-02  3696   0.198E-01    0.109E-01
RMM:   2    -0.106937458039E+04   -0.17360E-02   -0.34379E-03  2869   0.852E-02    0.859E-01
RMM:   3    -0.106937308450E+04    0.14959E-02   -0.13101E-03  2642   0.589E-02    0.123E-01
RMM:   4    -0.106937296179E+04    0.12271E-03   -0.38890E-04  2311   0.313E-02    0.111E-01
RMM:   5    -0.106937299482E+04   -0.33024E-04   -0.21607E-04  1967   0.248E-02
 207 F= -.10693319E+04 E0= -.10692882E+04  d E =-.938608E-03  mag=    11.9144
       N       E                     dE             d eps       ncg     rms          rms(c)
DAV:   1    -0.106937270635E+04    0.25544E-03   -0.12917E-01  3328   0.358E-01    0.133E-01
RMM:   2    -0.106937511620E+04   -0.24098E-02   -0.56717E-03  3583   0.119E-01    0.982E-01
RMM:   3    -0.106937321087E+04    0.19053E-02   -0.19977E-03  2769   0.704E-02    0.695E-02
RMM:   4    -0.106937312712E+04    0.83750E-04   -0.51525E-04  2415   0.376E-02
 208 F= -.10693320E+04 E0= -.10692884E+04  d E =-.971639E-03  mag=    11.9152
       N       E                     dE             d eps       ncg     rms          rms(c)
DAV:   1    -0.106937296112E+04    0.24975E-03   -0.43496E-02  3664   0.215E-01    0.922E-02
RMM:   2    -0.106937464795E+04   -0.16868E-02   -0.30959E-03  3012   0.843E-02    0.865E-01
RMM:   3    -0.106937323970E+04    0.14082E-02   -0.11241E-03  2565   0.562E-02    0.735E-02
RMM:   4    -0.106937315022E+04    0.89488E-04   -0.28118E-04  1999   0.293E-02
 209 F= -.10693320E+04 E0= -.10692883E+04  d E =-.100054E-02  mag=    11.9157
       N       E                     dE             d eps       ncg     rms          rms(c)
DAV:   1    -0.106937312196E+04    0.11774E-03   -0.10866E-02  3872   0.111E-01    0.873E-02
RMM:   2    -0.106937461967E+04   -0.14977E-02   -0.25668E-03  2681   0.669E-02    0.804E-01
RMM:   3    -0.106937333941E+04    0.12803E-02   -0.10384E-03  2323   0.508E-02    0.119E-01
RMM:   4    -0.106937317499E+04    0.16442E-03   -0.20818E-04  1855   0.232E-02    0.405E-02
RMM:   5    -0.106937319511E+04   -0.20123E-04   -0.90348E-05  1722   0.161E-02
 210 F= -.10693320E+04 E0= -.10692883E+04  d E =-.102309E-02  mag=    11.9162
       N       E                     dE             d eps       ncg     rms          rms(c)
DAV:   1    -0.106937336887E+04   -0.19388E-03   -0.84041E-02  3328   0.280E-01    0.715E-02
RMM:   2    -0.106937363777E+04   -0.26890E-03   -0.17545E-03  3232   0.758E-02    0.175E-01
RMM:   3    -0.106937362420E+04    0.13570E-04   -0.55366E-04  2399   0.376E-02
 211 F= -.10693324E+04 E0= -.10692888E+04  d E =-.400602E-03  mag=    11.9168
       N       E                     dE             d eps       ncg     rms          rms(c)
DAV:   1    -0.106937372719E+04   -0.89418E-04   -0.18533E-02  4384   0.148E-01    0.149E-01
RMM:   2    -0.106937768709E+04   -0.39599E-02   -0.76328E-03  2757   0.105E-01    0.129E+00
RMM:   3    -0.106937419011E+04    0.34970E-02   -0.30547E-03  2636   0.796E-02    0.247E-01
RMM:   4    -0.106937375200E+04    0.43811E-03   -0.54350E-04  2194   0.339E-02    0.647E-02
RMM:   5    -0.106937377638E+04   -0.24379E-04   -0.17674E-04  1807   0.195E-02
 212 F= -.10693326E+04 E0= -.10692889E+04  d E =-.534713E-03  mag=    11.9175
       N       E                     dE             d eps       ncg     rms          rms(c)
DAV:   1    -0.106937379473E+04   -0.42722E-04   -0.68145E-02  3328   0.253E-01    0.132E-01
RMM:   2    -0.106937678954E+04   -0.29948E-02   -0.56278E-03  3113   0.106E-01    0.112E+00
RMM:   3    -0.106937422314E+04    0.25664E-02   -0.22521E-03  2708   0.746E-02    0.147E-01
RMM:   4    -0.106937396693E+04    0.25621E-03   -0.50444E-04  2320   0.373E-02    0.108E-01
RMM:   5    -0.106937401399E+04   -0.47057E-04   -0.24207E-04  1941   0.255E-02
 213 F= -.10693328E+04 E0= -.10692892E+04  d E =-.749707E-03  mag=    11.9183
       N       E                     dE             d eps       ncg     rms          rms(c)
DAV:   1    -0.106937419549E+04   -0.22856E-03   -0.54097E-02  3456   0.234E-01    0.941E-02
RMM:   2    -0.106937564756E+04   -0.14521E-02   -0.30054E-03  2958   0.838E-02    0.777E-01
RMM:   3    -0.106937448777E+04    0.11598E-02   -0.10839E-03  2564   0.545E-02    0.850E-02
RMM:   4    -0.106937439981E+04    0.87956E-04   -0.30061E-04  1976   0.288E-02
 214 F= -.10693332E+04 E0= -.10692899E+04  d E =-.444594E-03  mag=    11.9190
       N       E                     dE             d eps       ncg     rms          rms(c)
DAV:   1    -0.106937447242E+04    0.15345E-04   -0.43514E-02  3392   0.211E-01    0.129E-01
RMM:   2    -0.106937756853E+04   -0.30961E-02   -0.52116E-03  2926   0.972E-02    0.118E+00
RMM:   3    -0.106937486586E+04    0.27027E-02   -0.21711E-03  2685   0.725E-02    0.168E-01
RMM:   4    -0.106937458248E+04    0.28338E-03   -0.45276E-04  2257   0.324E-02    0.709E-02
RMM:   5    -0.106937461039E+04   -0.27916E-04   -0.19449E-04  1846   0.225E-02
 215 F= -.10693335E+04 E0= -.10692902E+04  d E =-.750821E-03  mag=    11.9198
       N       E                     dE             d eps       ncg     rms          rms(c)
DAV:   1    -0.106937418493E+04    0.39755E-03   -0.17059E-01  3328   0.407E-01    0.146E-01
RMM:   2    -0.106937738729E+04   -0.32024E-02   -0.69338E-03  3522   0.129E-01    0.116E+00
RMM:   3    -0.106937481383E+04    0.25735E-02   -0.24898E-03  2761   0.766E-02    0.136E-01
RMM:   4    -0.106937467398E+04    0.13985E-03   -0.78418E-04  2575   0.423E-02    0.212E-01
RMM:   5    -0.106937461133E+04    0.62647E-04   -0.29663E-04  2079   0.298E-02
 216 F= -.10693337E+04 E0= -.10692904E+04  d E =-.917276E-03  mag=    11.9208
       N       E                     dE             d eps       ncg     rms          rms(c)
DAV:   1    -0.106937450343E+04    0.17055E-03   -0.78404E-02  3472   0.281E-01    0.104E-01
RMM:   2    -0.106937627310E+04   -0.17697E-02   -0.41321E-03  3254   0.955E-02    0.838E-01
RMM:   3    -0.106937485868E+04    0.14144E-02   -0.13949E-03  2467   0.602E-02    0.888E-02
RMM:   4    -0.106937476907E+04    0.89616E-04   -0.34107E-04  1956   0.306E-02
 217 F= -.10693339E+04 E0= -.10692904E+04  d E =-.108044E-02  mag=    11.9213
       N       E                     dE             d eps       ncg     rms          rms(c)
DAV:   1    -0.106937462164E+04    0.23705E-03   -0.29303E-02  3440   0.173E-01    0.657E-02
RMM:   2    -0.106937530353E+04   -0.68189E-03   -0.15763E-03  2784   0.604E-02    0.513E-01
RMM:   3    -0.106937478380E+04    0.51973E-03   -0.58295E-04  2175   0.416E-02    0.679E-02
RMM:   4    -0.106937473558E+04    0.48215E-04   -0.16628E-04  1797   0.224E-02
 218 F= -.10693339E+04 E0= -.10692905E+04  d E =-.108606E-02  mag=    11.9218
       N       E                     dE             d eps       ncg     rms          rms(c)
DAV:   1    -0.106937475848E+04    0.25322E-04   -0.17101E-02  3488   0.132E-01    0.989E-02
RMM:   2    -0.106937681888E+04   -0.20604E-02   -0.30851E-03  2570   0.707E-02    0.972E-01
RMM:   3    -0.106937498666E+04    0.18322E-02   -0.13547E-03  2309   0.571E-02    0.872E-02
RMM:   4    -0.106937482359E+04    0.16307E-03   -0.21357E-04  1805   0.223E-02    0.365E-02
RMM:   5    -0.106937484082E+04   -0.17239E-04   -0.95824E-05  1708   0.165E-02
 219 F= -.10693340E+04 E0= -.10692906E+04  d E =-.119268E-02  mag=    11.9221
       N       E                     dE             d eps       ncg     rms          rms(c)
DAV:   1    -0.106937481756E+04    0.60251E-05   -0.93313E-02  3328   0.317E-01    0.748E-02
RMM:   2    -0.106937537214E+04   -0.55458E-03   -0.26955E-03  3572   0.948E-02    0.384E-01
RMM:   3    -0.106937512026E+04    0.25188E-03   -0.66456E-04  2621   0.413E-02    0.885E-02
RMM:   4    -0.106937515791E+04   -0.37647E-04   -0.24963E-04  1825   0.312E-02
 220 F= -.10693343E+04 E0= -.10692911E+04  d E =-.354444E-03  mag=    11.9225
       N       E                     dE             d eps       ncg     rms          rms(c)
DAV:   1    -0.106937511384E+04    0.64264E-05   -0.47431E-04  2352   0.514E-02    0.484E-02
RMM:   2    -0.106937556002E+04   -0.44619E-03   -0.71396E-04  2227   0.367E-02    0.446E-01
RMM:   3    -0.106937518064E+04    0.37938E-03   -0.32417E-04  1938   0.286E-02    0.453E-02
RMM:   4    -0.106937514883E+04    0.31812E-04   -0.58561E-05  1721   0.143E-02
 221 F= -.10693343E+04 E0= -.10692910E+04  d E =-.367548E-03  mag=    11.9228
       N       E                     dE             d eps       ncg     rms          rms(c)
DAV:   1    -0.106937517882E+04    0.18181E-05   -0.22378E-04  2080   0.238E-02    0.552E-02
RMM:   2    -0.106937585385E+04   -0.67502E-03   -0.10168E-03  2239   0.417E-02    0.551E-01
RMM:   3    -0.106937526636E+04    0.58748E-03   -0.43281E-04  1974   0.305E-02    0.631E-02
RMM:   4    -0.106937521130E+04    0.55066E-04   -0.65149E-05  1711   0.140E-02
 222 F= -.10693344E+04 E0= -.10692911E+04  d E =-.449977E-03  mag=    11.9230
       N       E                     dE             d eps       ncg     rms          rms(c)
DAV:   1    -0.106937521839E+04    0.47972E-04   -0.52388E-05  1984   0.143E-02    0.249E-02
RMM:   2    -0.106937533893E+04   -0.12054E-03   -0.23057E-04  1790   0.219E-02    0.203E-01
RMM:   3    -0.106937525947E+04    0.79466E-04   -0.10569E-04  1690   0.156E-02
 223 F= -.10693345E+04 E0= -.10692912E+04  d E =-.504567E-03  mag=    11.9232
       N       E                     dE             d eps       ncg     rms          rms(c)
DAV:   1    -0.106937525334E+04    0.85591E-04   -0.29859E-05  1808   0.159E-02    0.175E-02
RMM:   2    -0.106937531053E+04   -0.57187E-04   -0.13036E-04  1656   0.127E-02
 224 F= -.10693345E+04 E0= -.10692913E+04  d E =-.564562E-03  mag=    11.9233
       N       E                     dE             d eps       ncg     rms          rms(c)
DAV:   1    -0.106937528637E+04   -0.33026E-04   -0.23269E-04  1840   0.323E-02    0.162E-02
RMM:   2    -0.106937532686E+04   -0.40499E-04   -0.10807E-04  1633   0.126E-02
 225 F= -.10693346E+04 E0= -.10692912E+04  d E =-.583208E-03  mag=    11.9234
       N       E                     dE             d eps       ncg     rms          rms(c)
DAV:   1    -0.106937531486E+04   -0.28492E-04   -0.16913E-04  1824   0.285E-02    0.241E-02
RMM:   2    -0.106937543285E+04   -0.11800E-03   -0.18175E-04  1683   0.171E-02    0.219E-01
RMM:   3    -0.106937535170E+04    0.81158E-04   -0.10040E-04  1637   0.154E-02
 226 F= -.10693346E+04 E0= -.10692913E+04  d E =-.612058E-03  mag=    11.9235
       N       E                     dE             d eps       ncg     rms          rms(c)
DAV:   1    -0.106937534457E+04    0.88287E-04   -0.17162E-05  1808   0.896E-03    0.121E-02
RMM:   2    -0.106937537173E+04   -0.27163E-04   -0.84075E-05  1584   0.921E-03
 227 F= -.10693346E+04 E0= -.10692913E+04  d E =-.637243E-03  mag=    11.9236
       N       E                     dE             d eps       ncg     rms          rms(c)
DAV:   1    -0.106937537547E+04   -0.30900E-04   -0.57447E-05  1792   0.132E-02    0.190E-02
RMM:   2    -0.106937545378E+04   -0.78309E-04   -0.12771E-04  1636   0.145E-02
 228 F= -.10693347E+04 E0= -.10692915E+04  d E =-.724854E-03  mag=    11.9236
       N       E                     dE             d eps       ncg     rms          rms(c)
DAV:   1    -0.106937540818E+04   -0.32718E-04   -0.33727E-04  1824   0.363E-02    0.121E-02
RMM:   2    -0.106937543288E+04   -0.24700E-04   -0.94033E-05  1609   0.113E-02
 229 F= -.10693347E+04 E0= -.10692913E+04  d E =-.703412E-03  mag=    11.9237
       N       E                     dE             d eps       ncg     rms          rms(c)
DAV:   1    -0.106937495833E+04    0.44985E-03   -0.93784E-02  3328   0.317E-01    0.760E-02
RMM:   2    -0.106937546954E+04   -0.51121E-03   -0.26333E-03  3541   0.921E-02    0.342E-01
RMM:   3    -0.106937526632E+04    0.20322E-03   -0.66725E-04  2468   0.411E-02    0.127E-01
RMM:   4    -0.106937529321E+04   -0.26897E-04   -0.27476E-04  1849   0.300E-02
 230 F= -.10693345E+04 E0= -.10692910E+04  d E =-.529672E-03  mag=    11.9236
