CeO2                                    
           1
    15.526200    0.000000    0.000000
    -7.763219   13.446001    0.000000
     0.000000    0.000000   22.923201
   Ce   O    Ni   C    H 
  48  94  10   1   4
Direct configuration=     1
   0.00000000  0.00000000  0.03457000
   0.33283334  0.16522989  0.17439463
   0.15753913  0.32889840  0.31600307
   0.00001006  0.25000006  0.03457000
   0.33079060  0.41580443  0.17210480
   0.16552487  0.07826256  0.32075249
   0.25000006  0.25000006  0.03457000
   0.08321963  0.41739612  0.17469759
   0.41025837  0.06796327  0.31468462
   0.25000000  0.00000000  0.03457000
   0.08369614  0.16592016  0.17516167
   0.40996443  0.33391444  0.30861902
   0.50000001  0.00000000  0.03457000
   0.83385101  0.16679721  0.17453331
   0.67886184  0.33665714  0.31427732
   0.50001008  0.25000006  0.03457000
   0.83438424  0.41786034  0.17361776
   0.66782246  0.08277842  0.31484559
   0.75000007  0.25000006  0.03457000
   0.58357266  0.41593005  0.17260615
   0.91526482  0.08140742  0.31524878
   0.75000001  0.00000000  0.03457000
   0.58300742  0.16678440  0.17529019
   0.91722266  0.33277537  0.31564446
   0.00000011  0.50000013  0.03457000
   0.33160419  0.66765586  0.17284118
   0.16731406  0.83302306  0.31630512
   0.00001017  0.75000019  0.03457000
   0.33353690  0.91636944  0.17265918
   0.16513156  0.58710393  0.32080101
   0.25000018  0.75000019  0.03457000
   0.08439646  0.91728908  0.17445658
   0.40935559  0.58591039  0.30716321
   0.25000012  0.50000013  0.03457000
   0.08393813  0.66686176  0.17432551
   0.41514064  0.83569527  0.31540152
   0.50000012  0.50000013  0.03457000
   0.83662092  0.66809200  0.17217246
   0.66783402  0.83610500  0.31713461
   0.50001019  0.75000019  0.03457000
   0.83300217  0.91515039  0.17479377
   0.67577471  0.58877919  0.30721424
   0.75000019  0.75000019  0.03457000
   0.58287678  0.91582394  0.17454056
   0.92437768  0.58738788  0.31650531
   0.75000013  0.50000013  0.03457000
   0.58323147  0.66697970  0.17241425
   0.92362665  0.83787952  0.31571950
   0.16667007  0.33334008  0.00000000
   0.00077294  0.99997032  0.13888072
   0.34218169  0.17255167  0.28637037
   0.41667008  0.33334008  0.00000000
   0.24953178  0.00008427  0.13761507
   0.08580077  0.17062186  0.28207826
   0.41667002  0.08334002  0.00000000
   0.24883863  0.24958079  0.13803256
   0.08622619  0.41550577  0.28261518
   0.16667002  0.08334002  0.00000000
   0.99850378  0.24877864  0.13910062
   0.32689060  0.41478666  0.27869241
   0.08334004  0.16667004  0.06913001
   0.41643378  0.33356640  0.20595285
   0.24195618  0.98279616  0.35508327
   0.33334003  0.16667004  0.06913001
   0.16420723  0.33217117  0.20956754
   0.99031912  0.99278190  0.35414297
   0.33334009  0.41667010  0.06913001
   0.17019441  0.08483465  0.21057191
   0.99846551  0.24911104  0.35257074
   0.08334009  0.41667010  0.06913001
   0.41576593  0.08261091  0.20762708
   0.24834196  0.26033846  0.37132918
   0.66667011  0.33334008  0.00000000
   0.50154113  0.00121770  0.13798334
   0.83685155  0.16731166  0.27654409
   0.91667012  0.33334008  0.00000000
   0.75055718  0.00074218  0.13962797
   0.58191914  0.16980150  0.28432083
   0.91667006  0.08334002  0.00000000
   0.75057296  0.25019409  0.13903914
   0.58185419  0.42180040  0.28533172
   0.66667006  0.08334002  0.00000000
   0.50086057  0.25031849  0.13817985
   0.83663516  0.42344278  0.27925955
   0.58334004  0.16667004  0.06913001
   0.91815392  0.33623073  0.21133973
   0.75559971  0.00901088  0.35095147
   0.83334004  0.16667004  0.06913001
   0.66724950  0.33563583  0.20895084
   0.50360727  0.99163969  0.35322945
   0.83334010  0.41667010  0.06913001
   0.66551763  0.08470827  0.21183955
   0.58334010  0.41667010  0.06913001
   0.91789537  0.08055442  0.21155912
   0.76047941  0.24834019  0.35147016
   0.16667019  0.83334020  0.00000000
   0.99906372  0.49981584  0.13787009
   0.33393906  0.67126176  0.27811381
   0.41667019  0.83334020  0.00000000
   0.24775688  0.49843122  0.13741868
   0.08168594  0.66803959  0.28009913
   0.41667014  0.58334014  0.00000000
   0.24931868  0.74977876  0.13745046
   0.07925319  0.91296413  0.27902248
   0.16667013  0.58334014  0.00000000
   0.00068852  0.75035532  0.13750179
   0.33271132  0.91173543  0.27557167
   0.08334015  0.66667020  0.06913001
   0.41679227  0.83332861  0.20732868
   0.25133710  0.49414311  0.37186644
   0.33334015  0.66667020  0.06913001
   0.16643310  0.83343172  0.20904226
   0.99063123  0.49907881  0.35432448
   0.33334021  0.91667026  0.06913001
   0.16468705  0.58246259  0.20867484
   0.99812801  0.74883068  0.35272051
   0.08334021  0.91667026  0.06913001
   0.41527541  0.58352007  0.20406892
   0.25597627  0.76104850  0.35428111
   0.66667023  0.83334020  0.00000000
   0.50102330  0.50004537  0.13775456
   0.83322143  0.66731075  0.28056649
   0.91667023  0.83334020  0.00000000
   0.75109507  0.50005338  0.13729913
   0.58065925  0.65356442  0.28075282
   0.91667018  0.58334014  0.00000000
   0.75067146  0.74971406  0.13751505
   0.58107710  0.91458969  0.27808770
   0.66667017  0.58334014  0.00000000
   0.50047651  0.75054697  0.13737956
   0.83405119  0.91040352  0.28030505
   0.58334015  0.66667020  0.06913001
   0.91649718  0.83151064  0.20959704
   0.74680483  0.50567361  0.36720851
   0.83334016  0.66667020  0.06913001
   0.66547506  0.82923432  0.20877020
   0.83334022  0.91667026  0.06913001
   0.67063597  0.58313401  0.20693500
   0.91770602  0.58566537  0.21011579
   0.58407025  0.91683024  0.06934000
   0.74032007  0.73517054  0.36859444
   0.49466481  0.75048838  0.36473750
   0.50912043  0.67815786  0.42188772
   0.65686669  0.66481301  0.43033524
   0.51640328  0.62213640  0.51152697
   0.49627323  0.51609040  0.42433311
   0.65181541  0.49054345  0.42058769
   0.49182003  0.37340746  0.45883628
   0.59730412  0.53036487  0.50641686
   0.33383284  0.50013512  0.43113093
   0.40731589  0.44689428  0.51064273
   0.33036090  0.34547932  0.42715951
   0.49000001  0.66000003  0.58999997
   0.41999999  0.67000002  0.60500002
   0.56500000  0.70999998  0.60500002
   0.49000001  0.58999997  0.60500002
   0.40731600  0.44000000  0.57999998
Direct configuration=     2
   0.00000000  0.00000000  0.03457000
   0.33311768  0.16539242  0.17434148
   0.15764894  0.32906948  0.31601284
   0.00001006  0.25000006  0.03457000
   0.33083772  0.41585117  0.17217112
   0.16544849  0.07834844  0.32067350
   0.25000006  0.25000006  0.03457000
   0.08324143  0.41740322  0.17473888
   0.41049609  0.06791626  0.31476321
   0.25000000  0.00000000  0.03457000
   0.08376466  0.16616155  0.17513359
   0.41029594  0.33425684  0.30831790
   0.50000001  0.00000000  0.03457000
   0.83381157  0.16691605  0.17455597
   0.67906315  0.33677330  0.31418848
   0.50001008  0.25000006  0.03457000
   0.83434668  0.41786070  0.17361052
   0.66771022  0.08247690  0.31493496
   0.75000007  0.25000006  0.03457000
   0.58361151  0.41597557  0.17264402
   0.91479273  0.08125872  0.31532237
   0.75000001  0.00000000  0.03457000
   0.58302334  0.16686048  0.17535491
   0.91723908  0.33288088  0.31576949
   0.00000011  0.50000013  0.03457000
   0.33161720  0.66764518  0.17291613
   0.16739190  0.83283079  0.31637758
   0.00001017  0.75000019  0.03457000
   0.33364759  0.91638540  0.17265025
   0.16508649  0.58699321  0.32081905
   0.25000018  0.75000019  0.03457000
   0.08439610  0.91718590  0.17435235
   0.40964050  0.58599910  0.30680568
   0.25000012  0.50000013  0.03457000
   0.08389875  0.66675693  0.17428788
   0.41540155  0.83554605  0.31546394
   0.50000012  0.50000013  0.03457000
   0.83647449  0.66787087  0.17219972
   0.66763642  0.83545039  0.31720256
   0.50001019  0.75000019  0.03457000
   0.83279976  0.91505436  0.17489820
   0.67544491  0.58898567  0.30699905
   0.75000019  0.75000019  0.03457000
   0.58286320  0.91577404  0.17472951
   0.92434437  0.58727051  0.31660681
   0.75000013  0.50000013  0.03457000
   0.58319125  0.66688207  0.17263343
   0.92327511  0.83760732  0.31578643
   0.16667007  0.33334008  0.00000000
   0.00076230  0.99993209  0.13896487
   0.34198775  0.17241270  0.28628333
   0.41667008  0.33334008  0.00000000
   0.24944750  0.00006693  0.13769047
   0.08560528  0.17039012  0.28209405
   0.41667002  0.08334002  0.00000000
   0.24878607  0.24945551  0.13806533
   0.08621655  0.41547410  0.28252761
   0.16667002  0.08334002  0.00000000
   0.99848485  0.24874447  0.13914476
   0.32674808  0.41461820  0.27858652
   0.08334004  0.16667004  0.06913001
   0.41637252  0.33352251  0.20594333
   0.24176159  0.98272441  0.35496644
   0.33334003  0.16667004  0.06913001
   0.16411326  0.33207883  0.20951417
   0.99041590  0.99280838  0.35405559
   0.33334009  0.41667010  0.06913001
   0.17014862  0.08470941  0.21075216
   0.99828708  0.24889185  0.35253050
   0.08334009  0.41667010  0.06913001
   0.41567634  0.08262171  0.20759208
   0.24823500  0.26024424  0.37156843
   0.66667011  0.33334008  0.00000000
   0.50152502  0.00112179  0.13802475
   0.83691083  0.16724946  0.27647703
   0.91667012  0.33334008  0.00000000
   0.75060369  0.00068178  0.13971252
   0.58188905  0.16954396  0.28422177
   0.91667006  0.08334002  0.00000000
   0.75063878  0.25017565  0.13906558
   0.58169894  0.42173459  0.28525252
   0.66667006  0.08334002  0.00000000
   0.50075726  0.25025058  0.13818557
   0.83660740  0.42339433  0.27920060
   0.58334004  0.16667004  0.06913001
   0.91814777  0.33619058  0.21130921
   0.75567703  0.00883824  0.35100778
   0.83334004  0.16667004  0.06913001
   0.66722207  0.33554177  0.20892671
   0.50358107  0.99158380  0.35323504
   0.83334010  0.41667010  0.06913001
   0.66557689  0.08465488  0.21178529
   0.58334010  0.41667010  0.06913001
   0.91784141  0.08041042  0.21157103
   0.76061889  0.24826721  0.35149332
   0.16667019  0.83334020  0.00000000
   0.99911336  0.49986114  0.13790182
   0.33422893  0.67158878  0.27807516
   0.41667019  0.83334020  0.00000000
   0.24773415  0.49845824  0.13742110
   0.08191097  0.66818395  0.28009670
   0.41667014  0.58334014  0.00000000
   0.24927793  0.74979764  0.13749909
   0.07935565  0.91321181  0.27900247
   0.16667013  0.58334014  0.00000000
   0.00072506  0.75043232  0.13755811
   0.33264118  0.91165981  0.27550668
   0.08334015  0.66667020  0.06913001
   0.41683155  0.83339639  0.20729889
   0.25118368  0.49407030  0.37204664
   0.33334015  0.66667020  0.06913001
   0.16636731  0.83348177  0.20905558
   0.99038689  0.49885797  0.35420211
   0.33334021  0.91667026  0.06913001
   0.16461824  0.58253246  0.20870628
   0.99825839  0.74909987  0.35265647
   0.08334021  0.91667026  0.06913001
   0.41525697  0.58357016  0.20405471
   0.25597499  0.76129368  0.35424733
   0.66667023  0.83334020  0.00000000
   0.50101567  0.50011844  0.13776699
   0.83357525  0.66762008  0.28049075
   0.91667023  0.83334020  0.00000000
   0.75117866  0.50009133  0.13731456
   0.58085258  0.65384896  0.28059366
   0.91667018  0.58334014  0.00000000
   0.75071410  0.74988030  0.13759574
   0.58124421  0.91439999  0.27809406
   0.66667017  0.58334014  0.00000000
   0.50057943  0.75063699  0.13743990
   0.83387082  0.91014617  0.28034613
   0.58334015  0.66667020  0.06913001
   0.91656995  0.83170996  0.20962704
   0.74633792  0.50552405  0.36749081
   0.83334016  0.66667020  0.06913001
   0.66553914  0.82940500  0.20896635
   0.83334022  0.91667026  0.06913001
   0.67072435  0.58325596  0.20681728
   0.91777903  0.58571556  0.21007601
   0.58407025  0.91683024  0.06934000
   0.74023394  0.73541129  0.36878784
   0.49496936  0.75062149  0.36485311
   0.50906692  0.67932250  0.42193689
   0.65744364  0.66485365  0.42987530
   0.51386572  0.62137122  0.51301845
   0.49661145  0.51641379  0.42346046
   0.65229097  0.49097160  0.42059908
   0.49177609  0.37386263  0.45891222
   0.59655342  0.52993999  0.50605734
   0.33401335  0.50041878  0.43051947
   0.40787779  0.44687022  0.51342616
   0.33022782  0.34514508  0.42683396
   0.48593849  0.65538853  0.59121889
   0.42910660  0.66883928  0.60286851
   0.56594746  0.71500623  0.60503166
   0.48594746  0.59137893  0.60507666
   0.40699999  0.43910686  0.57797588
Direct configuration=     3
   0.00000000  0.00000000  0.03457000
   0.33311474  0.16539074  0.17434203
   0.15764780  0.32906771  0.31601274
   0.00001006  0.25000006  0.03457000
   0.33083723  0.41585068  0.17217043
   0.16544928  0.07834755  0.32067432
   0.25000006  0.25000006  0.03457000
   0.08324120  0.41740315  0.17473845
   0.41049363  0.06791675  0.31476239
   0.25000000  0.00000000  0.03457000
   0.08376395  0.16615905  0.17513388
   0.41029251  0.33425329  0.30832102
   0.50000001  0.00000000  0.03457000
   0.83381198  0.16691482  0.17455574
   0.67906107  0.33677210  0.31418939
   0.50001008  0.25000006  0.03457000
   0.83434707  0.41786069  0.17361060
   0.66771138  0.08248002  0.31493404
   0.75000007  0.25000006  0.03457000
   0.58361110  0.41597510  0.17264362
   0.91479761  0.08126026  0.31532161
   0.75000001  0.00000000  0.03457000
   0.58302317  0.16685969  0.17535424
   0.91723891  0.33287979  0.31576820
   0.00000011  0.50000013  0.03457000
   0.33161706  0.66764529  0.17291535
   0.16739109  0.83283278  0.31637683
   0.00001017  0.75000019  0.03457000
   0.33364644  0.91638524  0.17265034
   0.16508695  0.58699435  0.32081886
   0.25000018  0.75000019  0.03457000
   0.08439610  0.91718696  0.17435343
   0.40963755  0.58599818  0.30680938
   0.25000012  0.50000013  0.03457000
   0.08389916  0.66675802  0.17428827
   0.41539885  0.83554759  0.31546329
   0.50000012  0.50000013  0.03457000
   0.83647600  0.66787316  0.17219943
   0.66763847  0.83545716  0.31720185
   0.50001019  0.75000019  0.03457000
   0.83280185  0.91505536  0.17489712
   0.67544833  0.58898353  0.30700128
   0.75000019  0.75000019  0.03457000
   0.58286334  0.91577455  0.17472756
   0.92434471  0.58727172  0.31660576
   0.75000013  0.50000013  0.03457000
   0.58319166  0.66688308  0.17263116
   0.92327875  0.83761014  0.31578573
   0.16667007  0.33334008  0.00000000
   0.00076241  0.99993249  0.13896400
   0.34198976  0.17241413  0.28628424
   0.41667008  0.33334008  0.00000000
   0.24944837  0.00006711  0.13768969
   0.08560730  0.17039252  0.28209388
   0.41667002  0.08334002  0.00000000
   0.24878662  0.24945680  0.13806500
   0.08621665  0.41547443  0.28252852
   0.16667002  0.08334002  0.00000000
   0.99848504  0.24874482  0.13914430
   0.32674955  0.41461994  0.27858762
   0.08334004  0.16667004  0.06913001
   0.41637315  0.33352297  0.20594343
   0.24176361  0.98272515  0.35496765
   0.33334003  0.16667004  0.06913001
   0.16411423  0.33207979  0.20951473
   0.99041490  0.99280811  0.35405650
   0.33334009  0.41667010  0.06913001
   0.17014910  0.08471070  0.21075030
   0.99828892  0.24889411  0.35253092
   0.08334009  0.41667010  0.06913001
   0.41567727  0.08262160  0.20759244
   0.24823611  0.26024521  0.37156596
   0.66667011  0.33334008  0.00000000
   0.50152519  0.00112278  0.13802432
   0.83691022  0.16725010  0.27647772
   0.91667012  0.33334008  0.00000000
   0.75060321  0.00068241  0.13971164
   0.58188936  0.16954663  0.28422280
   0.91667006  0.08334002  0.00000000
   0.75063810  0.25017585  0.13906530
   0.58170055  0.42173528  0.28525334
   0.66667006  0.08334002  0.00000000
   0.50075833  0.25025128  0.13818551
   0.83660769  0.42339483  0.27920121
   0.58334004  0.16667004  0.06913001
   0.91814784  0.33619100  0.21130952
   0.75567623  0.00884002  0.35100719
   0.83334004  0.16667004  0.06913001
   0.66722235  0.33554275  0.20892695
   0.50358134  0.99158438  0.35323498
   0.83334010  0.41667010  0.06913001
   0.66557628  0.08465544  0.21178585
   0.58334010  0.41667010  0.06913001
   0.91784196  0.08041191  0.21157091
   0.76061744  0.24826797  0.35149308
   0.16667019  0.83334020  0.00000000
   0.99911284  0.49986067  0.13790149
   0.33422593  0.67158540  0.27807556
   0.41667019  0.83334020  0.00000000
   0.24773439  0.49845796  0.13742107
   0.08190864  0.66818246  0.28009672
   0.41667014  0.58334014  0.00000000
   0.24927835  0.74979744  0.13749859
   0.07935459  0.91320925  0.27900268
   0.16667013  0.58334014  0.00000000
   0.00072469  0.75043153  0.13755753
   0.33264191  0.91166059  0.27550735
   0.08334015  0.66667020  0.06913001
   0.41683114  0.83339568  0.20729920
   0.25118527  0.49407105  0.37204478
   0.33334015  0.66667020  0.06913001
   0.16636799  0.83348126  0.20905544
   0.99038942  0.49886026  0.35420338
   0.33334021  0.91667026  0.06913001
   0.16461895  0.58253173  0.20870596
   0.99825704  0.74909709  0.35265713
   0.08334021  0.91667026  0.06913001
   0.41525716  0.58356964  0.20405485
   0.25597501  0.76129114  0.35424768
   0.66667023  0.83334020  0.00000000
   0.50101575  0.50011768  0.13776686
   0.83357159  0.66761688  0.28049154
   0.91667023  0.83334020  0.00000000
   0.75117780  0.50009094  0.13731440
   0.58085058  0.65384602  0.28059531
   0.91667018  0.58334014  0.00000000
   0.75071366  0.74987858  0.13759490
   0.58124248  0.91440195  0.27809399
   0.66667017  0.58334014  0.00000000
   0.50057837  0.75063606  0.13743927
   0.83387268  0.91014883  0.28034570
   0.58334015  0.66667020  0.06913001
   0.91656920  0.83170789  0.20962673
   0.74634275  0.50552559  0.36748789
   0.83334016  0.66667020  0.06913001
   0.66553848  0.82940323  0.20896432
   0.83334022  0.91667026  0.06913001
   0.67072344  0.58325470  0.20681850
   0.91777828  0.58571504  0.21007642
   0.58407025  0.91683024  0.06934000
   0.74023483  0.73540880  0.36878584
   0.49496621  0.75062012  0.36485191
   0.50906747  0.67931045  0.42193638
   0.65743767  0.66485323  0.42988006
   0.51389197  0.62137913  0.51300302
   0.49660795  0.51641045  0.42346949
   0.65228605  0.49096717  0.42059897
   0.49177655  0.37385792  0.45891143
   0.59656119  0.52994439  0.50606105
   0.33401148  0.50041585  0.43052580
   0.40787198  0.44687047  0.51339736
   0.33022919  0.34514854  0.42683733
   0.48598051  0.65543624  0.59120627
   0.42901239  0.66885129  0.60289056
   0.56593766  0.71495444  0.60503134
   0.48598938  0.59136467  0.60507587
   0.40700326  0.43911610  0.57799682
Direct configuration=     4
   0.00000000  0.00000000  0.03457000
   0.33302254  0.16533803  0.17435927
   0.15761219  0.32901223  0.31600957
   0.00001006  0.25000006  0.03457000
   0.33082195  0.41583553  0.17214893
   0.16547405  0.07831971  0.32069993
   0.25000006  0.25000006  0.03457000
   0.08323413  0.41740085  0.17472506
   0.41041655  0.06793199  0.31473691
   0.25000000  0.00000000  0.03457000
   0.08374173  0.16608077  0.17514299
   0.41018501  0.33414227  0.30841866
   0.50000001  0.00000000  0.03457000
   0.83382477  0.16687628  0.17454839
   0.67899579  0.33673443  0.31421820
   0.50001008  0.25000006  0.03457000
   0.83435925  0.41786057  0.17361294
   0.66774778  0.08257779  0.31490506
   0.75000007  0.25000006  0.03457000
   0.58359851  0.41596034  0.17263135
   0.91495069  0.08130848  0.31529775
   0.75000001  0.00000000  0.03457000
   0.58301801  0.16683502  0.17533325
   0.91723359  0.33284558  0.31572766
   0.00000011  0.50000013  0.03457000
   0.33161284  0.66764875  0.17289105
   0.16736585  0.83289512  0.31635333
   0.00001017  0.75000019  0.03457000
   0.33361055  0.91638006  0.17265324
   0.16510157  0.58703025  0.32081301
   0.25000018  0.75000019  0.03457000
   0.08439622  0.91722042  0.17438722
   0.40954517  0.58596942  0.30692532
   0.25000012  0.50000013  0.03457000
   0.08391193  0.66679201  0.17430047
   0.41531425  0.83559598  0.31544305
   0.50000012  0.50000013  0.03457000
   0.83652348  0.66794487  0.17219060
   0.66770254  0.83566942  0.31717982
   0.50001019  0.75000019  0.03457000
   0.83286749  0.91508649  0.17486326
   0.67555526  0.58891658  0.30707105
   0.75000019  0.75000019  0.03457000
   0.58286775  0.91579074  0.17466629
   0.92435552  0.58730978  0.31657285
   0.75000013  0.50000013  0.03457000
   0.58320470  0.66691474  0.17256009
   0.92339274  0.83769840  0.31576403
   0.16667007  0.33334008  0.00000000
   0.00076586  0.99994489  0.13893671
   0.34205264  0.17245920  0.28631246
   0.41667008  0.33334008  0.00000000
   0.24947570  0.00007273  0.13766524
   0.08567069  0.17046766  0.28208876
   0.41667002  0.08334002  0.00000000
   0.24880366  0.24949743  0.13805437
   0.08621977  0.41548470  0.28255691
   0.16667002  0.08334002  0.00000000
   0.99849118  0.24875590  0.13912999
   0.32679577  0.41467456  0.27862195
   0.08334004  0.16667004  0.06913001
   0.41639302  0.33353720  0.20594652
   0.24182670  0.98274842  0.35500553
   0.33334003  0.16667004  0.06913001
   0.16414470  0.33210973  0.20953203
   0.99038352  0.99279952  0.35408483
   0.33334009  0.41667010  0.06913001
   0.17016394  0.08475131  0.21069185
   0.99834678  0.24896519  0.35254396
   0.08334009  0.41667010  0.06913001
   0.41570632  0.08261810  0.20760379
   0.24827079  0.26027576  0.37148838
   0.66667011  0.33334008  0.00000000
   0.50153041  0.00115388  0.13801089
   0.83689100  0.16727027  0.27649947
   0.91667012  0.33334008  0.00000000
   0.75058813  0.00070199  0.13968423
   0.58189912  0.16963014  0.28425492
   0.91667006  0.08334002  0.00000000
   0.75061676  0.25018182  0.13905673
   0.58175089  0.42175661  0.28527902
   0.66667006  0.08334002  0.00000000
   0.50079183  0.25027330  0.13818365
   0.83661669  0.42341054  0.27922033
   0.58334004  0.16667004  0.06913001
   0.91814983  0.33620402  0.21131942
   0.75565116  0.00889600  0.35098894
   0.83334004  0.16667004  0.06913001
   0.66723125  0.33557324  0.20893478
   0.50358983  0.99160250  0.35323317
   0.83334010  0.41667010  0.06913001
   0.66555706  0.08467275  0.21180345
   0.58334010  0.41667010  0.06913001
   0.91785946  0.08045860  0.21156705
   0.76057222  0.24829163  0.35148557
   0.16667019  0.83334020  0.00000000
   0.99909675  0.49984599  0.13789120
   0.33413194  0.67147936  0.27808809
   0.41667019  0.83334020  0.00000000
   0.24774176  0.49844920  0.13742029
   0.08183567  0.66813565  0.28009751
   0.41667014  0.58334014  0.00000000
   0.24929157  0.74979132  0.13748282
   0.07932137  0.91312894  0.27900916
   0.16667013  0.58334014  0.00000000
   0.00071284  0.75040656  0.13753926
   0.33266465  0.91168511  0.27552842
   0.08334015  0.66667020  0.06913001
   0.41681840  0.83337371  0.20730886
   0.25123501  0.49409466  0.37198635
   0.33334015  0.66667020  0.06913001
   0.16638932  0.83346503  0.20905112
   0.99046865  0.49893186  0.35424306
   0.33334021  0.91667026  0.06913001
   0.16464126  0.58250908  0.20869576
   0.99821477  0.74900980  0.35267790
   0.08334021  0.91667026  0.06913001
   0.41526314  0.58355340  0.20405946
   0.25597542  0.76121164  0.35425863
   0.66667023  0.83334020  0.00000000
   0.50101822  0.50009399  0.13776283
   0.83345686  0.66751658  0.28051610
   0.91667023  0.83334020  0.00000000
   0.75115069  0.50007864  0.13730940
   0.58078789  0.65375375  0.28064691
   0.91667018  0.58334014  0.00000000
   0.75069983  0.74982468  0.13756874
   0.58118830  0.91446346  0.27809193
   0.66667017  0.58334014  0.00000000
   0.50054499  0.75060687  0.13741971
   0.83393117  0.91023228  0.28033238
   0.58334015  0.66667020  0.06913001
   0.91654560  0.83164326  0.20961700
   0.74649415  0.50557409  0.36739635
   0.83334016  0.66667020  0.06913001
   0.66551770  0.82934789  0.20890071
   0.83334022  0.91667026  0.06913001
   0.67069478  0.58321516  0.20685667
   0.91775460  0.58569877  0.21008932
   0.58407025  0.91683024  0.06934000
   0.74026276  0.73533073  0.36872313
   0.49486746  0.75057695  0.36481442
   0.50908482  0.67893281  0.42192044
   0.65725059  0.66484005  0.43002920
   0.51471480  0.62162725  0.51251939
   0.49649828  0.51630559  0.42375245
   0.65213184  0.49082834  0.42059527
   0.49179079  0.37371033  0.45888681
   0.59680461  0.53008216  0.50617763
   0.33395295  0.50032387  0.43072407
   0.40768978  0.44687827  0.51249481
   0.33027235  0.34525692  0.42694289
   0.48729749  0.65693156  0.59081103
   0.42605948  0.66922767  0.60358172
   0.56563044  0.71333112  0.60502108
   0.48730346  0.59091753  0.60505101
   0.40710573  0.43940571  0.57865316
Direct configuration=     5
   0.00000000  0.00000000  0.03457000
   0.33303849  0.16534715  0.17435628
   0.15761836  0.32902183  0.31601012
   0.00001006  0.25000006  0.03457000
   0.33082459  0.41583815  0.17215265
   0.16546976  0.07832453  0.32069550
   0.25000006  0.25000006  0.03457000
   0.08323536  0.41740125  0.17472738
   0.41042989  0.06792935  0.31474132
   0.25000000  0.00000000  0.03457000
   0.08374558  0.16609432  0.17514141
   0.41020362  0.33416148  0.30840176
   0.50000001  0.00000000  0.03457000
   0.83382256  0.16688295  0.17454966
   0.67900709  0.33674095  0.31421322
   0.50001008  0.25000006  0.03457000
   0.83435714  0.41786060  0.17361254
   0.66774148  0.08256087  0.31491007
   0.75000007  0.25000006  0.03457000
   0.58360069  0.41596289  0.17263347
   0.91492420  0.08130013  0.31530188
   0.75000001  0.00000000  0.03457000
   0.58301891  0.16683929  0.17533688
   0.91723451  0.33285150  0.31573467
   0.00000011  0.50000013  0.03457000
   0.33161357  0.66764815  0.17289525
   0.16737022  0.83288434  0.31635740
   0.00001017  0.75000019  0.03457000
   0.33361676  0.91638096  0.17265274
   0.16509904  0.58702404  0.32081403
   0.25000018  0.75000019  0.03457000
   0.08439620  0.91721463  0.17438138
   0.40956115  0.58597439  0.30690525
   0.25000012  0.50000013  0.03457000
   0.08390972  0.66678613  0.17429836
   0.41532889  0.83558761  0.31544655
   0.50000012  0.50000013  0.03457000
   0.83651527  0.66793246  0.17219213
   0.66769145  0.83563269  0.31718364
   0.50001019  0.75000019  0.03457000
   0.83285613  0.91508111  0.17486912
   0.67553676  0.58892817  0.30705898
   0.75000019  0.75000019  0.03457000
   0.58286698  0.91578794  0.17467689
   0.92435365  0.58730320  0.31657854
   0.75000013  0.50000013  0.03457000
   0.58320245  0.66690926  0.17257239
   0.92337302  0.83768313  0.31576779
   0.16667007  0.33334008  0.00000000
   0.00076526  0.99994274  0.13894144
   0.34204176  0.17245140  0.28630757
   0.41667008  0.33334008  0.00000000
   0.24947097  0.00007176  0.13766947
   0.08565972  0.17045466  0.28208965
   0.41667002  0.08334002  0.00000000
   0.24880071  0.24949040  0.13805621
   0.08621923  0.41548292  0.28255200
   0.16667002  0.08334002  0.00000000
   0.99849012  0.24875398  0.13913246
   0.32678777  0.41466511  0.27861601
   0.08334004  0.16667004  0.06913001
   0.41638958  0.33353473  0.20594598
   0.24181579  0.98274439  0.35499898
   0.33334003  0.16667004  0.06913001
   0.16413943  0.33210455  0.20952904
   0.99038895  0.99280100  0.35407993
   0.33334009  0.41667010  0.06913001
   0.17016137  0.08474429  0.21070196
   0.99833677  0.24895289  0.35254171
   0.08334009  0.41667010  0.06913001
   0.41570129  0.08261870  0.20760183
   0.24826479  0.26027048  0.37150180
   0.66667011  0.33334008  0.00000000
   0.50152951  0.00114850  0.13801322
   0.83689432  0.16726678  0.27649571
   0.91667012  0.33334008  0.00000000
   0.75059074  0.00069860  0.13968897
   0.58189743  0.16961569  0.28424936
   0.91667006  0.08334002  0.00000000
   0.75062045  0.25018079  0.13905821
   0.58174218  0.42175292  0.28527458
   0.66667006  0.08334002  0.00000000
   0.50078603  0.25026949  0.13818397
   0.83661513  0.42340782  0.27921702
   0.58334004  0.16667004  0.06913001
   0.91814948  0.33620176  0.21131771
   0.75565550  0.00888632  0.35099209
   0.83334004  0.16667004  0.06913001
   0.66722971  0.33556797  0.20893343
   0.50358836  0.99159936  0.35323348
   0.83334010  0.41667010  0.06913001
   0.66556039  0.08466975  0.21180040
   0.58334010  0.41667010  0.06913001
   0.91785643  0.08045052  0.21156772
   0.76058004  0.24828754  0.35148687
   0.16667019  0.83334020  0.00000000
   0.99909953  0.49984853  0.13789298
   0.33414820  0.67149771  0.27808592
   0.41667019  0.83334020  0.00000000
   0.24774048  0.49845072  0.13742042
   0.08184830  0.66814375  0.28009737
   0.41667014  0.58334014  0.00000000
   0.24928928  0.74979238  0.13748554
   0.07932712  0.91314283  0.27900804
   0.16667013  0.58334014  0.00000000
   0.00071489  0.75041088  0.13754242
   0.33266072  0.91168087  0.27552478
   0.08334015  0.66667020  0.06913001
   0.41682061  0.83337751  0.20730718
   0.25122641  0.49409057  0.37199646
   0.33334015  0.66667020  0.06913001
   0.16638563  0.83346783  0.20905187
   0.99045494  0.49891947  0.35423619
   0.33334021  0.91667026  0.06913001
   0.16463740  0.58251300  0.20869753
   0.99822208  0.74902491  0.35267430
   0.08334021  0.91667026  0.06913001
   0.41526211  0.58355621  0.20405867
   0.25597535  0.76122540  0.35425674
   0.66667023  0.83334020  0.00000000
   0.50101780  0.50009809  0.13776353
   0.83347671  0.66753393  0.28051185
   0.91667023  0.83334020  0.00000000
   0.75115538  0.50008077  0.13731027
   0.58079874  0.65376972  0.28063798
   0.91667018  0.58334014  0.00000000
   0.75070223  0.74983400  0.13757326
   0.58119767  0.91445282  0.27809229
   0.66667017  0.58334014  0.00000000
   0.50055077  0.75061192  0.13742309
   0.83392105  0.91021784  0.28033469
   0.58334015  0.66667020  0.06913001
   0.91654968  0.83165445  0.20961869
   0.74646795  0.50556570  0.36741219
   0.83334016  0.66667020  0.06913001
   0.66552130  0.82935747  0.20891172
   0.83334022  0.91667026  0.06913001
   0.67069974  0.58322200  0.20685006
   0.91775870  0.58570158  0.21008709
   0.58407025  0.91683024  0.06934000
   0.74025793  0.73534424  0.36873398
   0.49488455  0.75058442  0.36482091
   0.50908182  0.67899816  0.42192320
   0.65728296  0.66484233  0.43000339
   0.51457241  0.62158431  0.51260308
   0.49651726  0.51632373  0.42370349
   0.65215853  0.49085237  0.42059591
   0.49178833  0.37373587  0.45889107
   0.59676248  0.53005832  0.50615746
   0.33396308  0.50033979  0.43068976
   0.40772131  0.44687692  0.51265099
   0.33026488  0.34523817  0.42692462