 157 157   0   0
  0.3048133E+02  0.1552620E-08  0.1552619E-08  0.2292320E-08  0.0000000E+00
  1.000000000000000E-004
  CAR 
 CeO2                                    
      2.95596222    -36.84290904  301     -0.21774953      1.00000000
    -36.843  0.0000E+00  0.0000E+00  0.0000E+00  0.0000E+00
    -36.710  0.0000E+00  0.0000E+00  0.0000E+00  0.0000E+00
    -36.578  0.0000E+00  0.0000E+00  0.0000E+00  0.0000E+00
    -36.445  0.0000E+00  0.0000E+00  0.0000E+00  0.0000E+00
    -36.312  0.0000E+00  0.0000E+00  0.0000E+00  0.0000E+00
    -36.180  0.0000E+00  0.0000E+00  0.0000E+00  0.0000E+00
    -36.047  0.0000E+00  0.0000E+00  0.0000E+00  0.0000E+00
    -35.914  0.0000E+00  0.0000E+00  0.0000E+00  0.0000E+00
    -35.782  0.0000E+00  0.0000E+00  0.0000E+00  0.0000E+00
    -35.649  0.0000E+00  0.0000E+00  0.0000E+00  0.0000E+00
    -35.516  0.1438E-11  0.2554E-11  0.1908E-12  0.3388E-12
    -35.384  0.1672E-06  0.2439E-06  0.2218E-07  0.3236E-07
    -35.251  0.7049E-03  0.8663E-03  0.9353E-04  0.1150E-03
    -35.118  0.1415E+00  0.1520E+00  0.1886E-01  0.2028E-01
    -34.986  0.2649E+01  0.2649E+01  0.3703E+00  0.3717E+00
    -34.853  0.9534E+01  0.9482E+01  0.1635E+01  0.1630E+01
    -34.720  0.6147E+01  0.6182E+01  0.2451E+01  0.2450E+01
    -34.588  0.7640E+00  0.7742E+00  0.2552E+01  0.2553E+01
    -34.455  0.7788E-01  0.7429E-01  0.2562E+01  0.2562E+01
    -34.322  0.9848E-03  0.8849E-03  0.2562E+01  0.2562E+01
    -34.190  0.5023E-06  0.4249E-06  0.2562E+01  0.2562E+01
    -34.057  0.1885E-06  0.6885E-11  0.2563E+01  0.2562E+01
    -33.924  0.5490E-03  0.2615E-16  0.2563E+01  0.2562E+01
    -33.792  0.6722E-01  0.4035E-10  0.2571E+01  0.2563E+01
    -33.659  0.5137E+00  0.1536E-05  0.2640E+01  0.2563E+01
    -33.526  0.5781E+00  0.2014E-02  0.2716E+01  0.2563E+01
    -33.394  0.1197E+01  0.1141E+00  0.2875E+01  0.2578E+01
    -33.261  0.4584E+00  0.5628E+00  0.2936E+01  0.2653E+01
    -33.128  0.1183E-01  0.6469E+00  0.2938E+01  0.2738E+01
    -32.996  0.1754E-01  0.8079E+00  0.2940E+01  0.2846E+01
    -32.863  0.2355E+00  0.1039E+01  0.2971E+01  0.2983E+01
    -32.730  0.2065E+00  0.1244E+00  0.2998E+01  0.3000E+01
    -32.598  0.1148E-01  0.8640E-03  0.3000E+01  0.3000E+01
    -32.465  0.2829E-04  0.2575E-06  0.3000E+01  0.3000E+01
    -32.332  0.2480E-08  0.2796E-11  0.3000E+01  0.3000E+01
    -32.200  0.7113E-14  0.0000E+00  0.3000E+01  0.3000E+01
    -32.067  0.0000E+00  0.0000E+00  0.3000E+01  0.3000E+01
    -31.934  0.0000E+00  0.0000E+00  0.3000E+01  0.3000E+01
    -31.802  0.0000E+00  0.0000E+00  0.3000E+01  0.3000E+01
    -31.669  0.0000E+00  0.0000E+00  0.3000E+01  0.3000E+01
    -31.536  0.0000E+00  0.0000E+00  0.3000E+01  0.3000E+01
    -31.404  0.0000E+00  0.0000E+00  0.3000E+01  0.3000E+01
    -31.271  0.0000E+00  0.0000E+00  0.3000E+01  0.3000E+01
    -31.138  0.0000E+00  0.0000E+00  0.3000E+01  0.3000E+01
    -31.006  0.0000E+00  0.0000E+00  0.3000E+01  0.3000E+01
    -30.873  0.0000E+00  0.0000E+00  0.3000E+01  0.3000E+01
    -30.740  0.0000E+00  0.0000E+00  0.3000E+01  0.3000E+01
    -30.608  0.0000E+00  0.0000E+00  0.3000E+01  0.3000E+01
    -30.475  0.0000E+00  0.0000E+00  0.3000E+01  0.3000E+01
    -30.342  0.0000E+00  0.0000E+00  0.3000E+01  0.3000E+01
    -30.210  0.0000E+00  0.0000E+00  0.3000E+01  0.3000E+01
    -30.077  0.0000E+00  0.0000E+00  0.3000E+01  0.3000E+01
    -29.944  0.0000E+00  0.0000E+00  0.3000E+01  0.3000E+01
    -29.812  0.0000E+00  0.0000E+00  0.3000E+01  0.3000E+01
    -29.679  0.0000E+00  0.0000E+00  0.3000E+01  0.3000E+01
    -29.546  0.0000E+00  0.0000E+00  0.3000E+01  0.3000E+01
    -29.414  0.0000E+00  0.0000E+00  0.3000E+01  0.3000E+01
    -29.281  0.0000E+00  0.0000E+00  0.3000E+01  0.3000E+01
    -29.148  0.0000E+00  0.0000E+00  0.3000E+01  0.3000E+01
    -29.016  0.0000E+00  0.0000E+00  0.3000E+01  0.3000E+01
    -28.883  0.0000E+00  0.0000E+00  0.3000E+01  0.3000E+01
    -28.750  0.0000E+00  0.0000E+00  0.3000E+01  0.3000E+01
    -28.618  0.0000E+00  0.0000E+00  0.3000E+01  0.3000E+01
    -28.485  0.0000E+00  0.0000E+00  0.3000E+01  0.3000E+01
    -28.352  0.0000E+00  0.0000E+00  0.3000E+01  0.3000E+01
    -28.220  0.0000E+00  0.0000E+00  0.3000E+01  0.3000E+01
    -28.087  0.0000E+00  0.0000E+00  0.3000E+01  0.3000E+01
    -27.954  0.0000E+00  0.0000E+00  0.3000E+01  0.3000E+01
    -27.822  0.0000E+00  0.0000E+00  0.3000E+01  0.3000E+01
    -27.689  0.0000E+00  0.0000E+00  0.3000E+01  0.3000E+01
    -27.557  0.0000E+00  0.0000E+00  0.3000E+01  0.3000E+01
    -27.424  0.0000E+00  0.0000E+00  0.3000E+01  0.3000E+01
    -27.291  0.0000E+00  0.0000E+00  0.3000E+01  0.3000E+01
    -27.159  0.0000E+00  0.0000E+00  0.3000E+01  0.3000E+01
    -27.026  0.0000E+00  0.0000E+00  0.3000E+01  0.3000E+01
    -26.893  0.0000E+00  0.0000E+00  0.3000E+01  0.3000E+01
    -26.761  0.0000E+00  0.0000E+00  0.3000E+01  0.3000E+01
    -26.628  0.0000E+00  0.0000E+00  0.3000E+01  0.3000E+01
    -26.495  0.0000E+00  0.0000E+00  0.3000E+01  0.3000E+01
    -26.363  0.0000E+00  0.0000E+00  0.3000E+01  0.3000E+01
    -26.230  0.0000E+00  0.0000E+00  0.3000E+01  0.3000E+01
    -26.097  0.0000E+00  0.0000E+00  0.3000E+01  0.3000E+01
    -25.965  0.0000E+00  0.0000E+00  0.3000E+01  0.3000E+01
    -25.832  0.0000E+00  0.0000E+00  0.3000E+01  0.3000E+01
    -25.699  0.0000E+00  0.0000E+00  0.3000E+01  0.3000E+01
    -25.567  0.0000E+00  0.0000E+00  0.3000E+01  0.3000E+01
    -25.434  0.0000E+00  0.0000E+00  0.3000E+01  0.3000E+01
    -25.301  0.0000E+00  0.0000E+00  0.3000E+01  0.3000E+01
    -25.169  0.0000E+00  0.0000E+00  0.3000E+01  0.3000E+01
    -25.036  0.0000E+00  0.0000E+00  0.3000E+01  0.3000E+01
    -24.903  0.0000E+00  0.0000E+00  0.3000E+01  0.3000E+01
    -24.771  0.0000E+00  0.0000E+00  0.3000E+01  0.3000E+01
    -24.638  0.0000E+00  0.0000E+00  0.3000E+01  0.3000E+01
    -24.505  0.0000E+00  0.0000E+00  0.3000E+01  0.3000E+01
    -24.373  0.0000E+00  0.0000E+00  0.3000E+01  0.3000E+01
    -24.240  0.0000E+00  0.0000E+00  0.3000E+01  0.3000E+01
    -24.107  0.0000E+00  0.0000E+00  0.3000E+01  0.3000E+01
    -23.975  0.0000E+00  0.0000E+00  0.3000E+01  0.3000E+01
    -23.842  0.0000E+00  0.0000E+00  0.3000E+01  0.3000E+01
    -23.709  0.0000E+00  0.0000E+00  0.3000E+01  0.3000E+01
    -23.577  0.0000E+00  0.0000E+00  0.3000E+01  0.3000E+01
    -23.444  0.0000E+00  0.0000E+00  0.3000E+01  0.3000E+01
    -23.311  0.0000E+00  0.0000E+00  0.3000E+01  0.3000E+01
    -23.179  0.0000E+00  0.0000E+00  0.3000E+01  0.3000E+01
    -23.046  0.0000E+00  0.0000E+00  0.3000E+01  0.3000E+01
    -22.913  0.0000E+00  0.0000E+00  0.3000E+01  0.3000E+01
    -22.781  0.0000E+00  0.0000E+00  0.3000E+01  0.3000E+01
    -22.648  0.0000E+00  0.0000E+00  0.3000E+01  0.3000E+01
    -22.515  0.0000E+00  0.0000E+00  0.3000E+01  0.3000E+01
    -22.383  0.0000E+00  0.0000E+00  0.3000E+01  0.3000E+01
    -22.250  0.0000E+00  0.0000E+00  0.3000E+01  0.3000E+01
    -22.117  0.0000E+00  0.0000E+00  0.3000E+01  0.3000E+01
    -21.985  0.0000E+00  0.0000E+00  0.3000E+01  0.3000E+01
    -21.852  0.0000E+00  0.0000E+00  0.3000E+01  0.3000E+01
    -21.719  0.0000E+00  0.0000E+00  0.3000E+01  0.3000E+01
    -21.587  0.0000E+00  0.0000E+00  0.3000E+01  0.3000E+01
    -21.454  0.0000E+00  0.0000E+00  0.3000E+01  0.3000E+01
    -21.321  0.0000E+00  0.0000E+00  0.3000E+01  0.3000E+01
    -21.189  0.0000E+00  0.0000E+00  0.3000E+01  0.3000E+01
    -21.056  0.0000E+00  0.0000E+00  0.3000E+01  0.3000E+01
    -20.923  0.0000E+00  0.0000E+00  0.3000E+01  0.3000E+01
    -20.791  0.0000E+00  0.0000E+00  0.3000E+01  0.3000E+01
    -20.658  0.4707E-15  0.4184E-15  0.3000E+01  0.3000E+01
    -20.525  0.3390E-09  0.3094E-09  0.3000E+01  0.3000E+01
    -20.393  0.8225E-05  0.7645E-05  0.3000E+01  0.3000E+01
    -20.260  0.7597E-02  0.7210E-02  0.3001E+01  0.3001E+01
    -20.127  0.3258E+00  0.3172E+00  0.3044E+01  0.3043E+01
    -19.995  0.9343E+00  0.9353E+00  0.3168E+01  0.3167E+01
    -19.862  0.8561E+00  0.8478E+00  0.3282E+01  0.3280E+01
    -19.729  0.3231E+01  0.3151E+01  0.3710E+01  0.3698E+01
    -19.597  0.5301E+01  0.5234E+01  0.4414E+01  0.4392E+01
    -19.464  0.2841E+01  0.2910E+01  0.4791E+01  0.4778E+01
    -19.331  0.2765E+01  0.2695E+01  0.5157E+01  0.5136E+01
    -19.199  0.2135E+01  0.2209E+01  0.5441E+01  0.5429E+01
    -19.066  0.1550E+01  0.1534E+01  0.5646E+01  0.5632E+01
    -18.933  0.2644E+01  0.2584E+01  0.5997E+01  0.5975E+01
    -18.801  0.2000E+01  0.2004E+01  0.6262E+01  0.6241E+01
    -18.668  0.1668E+01  0.1584E+01  0.6484E+01  0.6451E+01
    -18.535  0.2464E+01  0.2383E+01  0.6810E+01  0.6767E+01
    -18.403  0.3033E+01  0.3038E+01  0.7213E+01  0.7170E+01
    -18.270  0.2035E+01  0.1892E+01  0.7483E+01  0.7421E+01
    -18.137  0.1472E+01  0.1505E+01  0.7678E+01  0.7621E+01
    -18.005  0.1748E+01  0.1666E+01  0.7910E+01  0.7842E+01
    -17.872  0.1375E+01  0.1649E+01  0.8092E+01  0.8061E+01
    -17.739  0.4810E+00  0.6633E+00  0.8156E+01  0.8149E+01
    -17.607  0.6577E+00  0.5887E+00  0.8243E+01  0.8227E+01
    -17.474  0.2631E+01  0.2457E+01  0.8592E+01  0.8553E+01
    -17.341  0.6412E+01  0.6326E+01  0.9443E+01  0.9392E+01
    -17.209  0.8140E+01  0.8108E+01  0.1052E+02  0.1047E+02
    -17.076  0.6091E+01  0.6126E+01  0.1133E+02  0.1128E+02
    -16.943  0.3403E+01  0.3366E+01  0.1178E+02  0.1173E+02
    -16.811  0.1875E+01  0.1663E+01  0.1203E+02  0.1195E+02
    -16.678  0.1626E+01  0.1522E+01  0.1225E+02  0.1215E+02
    -16.545  0.1519E+01  0.1476E+01  0.1245E+02  0.1235E+02
    -16.413  0.2138E+01  0.1654E+01  0.1273E+02  0.1256E+02
    -16.280  0.2226E+01  0.2261E+01  0.1303E+02  0.1286E+02
    -16.147  0.1668E+01  0.1878E+01  0.1325E+02  0.1311E+02
    -16.015  0.1544E+01  0.1701E+01  0.1345E+02  0.1334E+02
    -15.882  0.1127E+01  0.1541E+01  0.1360E+02  0.1354E+02
    -15.750  0.2524E+01  0.2251E+01  0.1394E+02  0.1384E+02
    -15.617  0.2076E+01  0.2099E+01  0.1421E+02  0.1412E+02
    -15.484  0.2205E+01  0.2257E+01  0.1451E+02  0.1442E+02
    -15.352  0.2510E+01  0.2511E+01  0.1484E+02  0.1475E+02
    -15.219  0.2825E+01  0.2733E+01  0.1521E+02  0.1512E+02
    -15.086  0.2290E+01  0.2283E+01  0.1552E+02  0.1542E+02
    -14.954  0.2344E+01  0.2419E+01  0.1583E+02  0.1574E+02
    -14.821  0.3478E+01  0.3305E+01  0.1629E+02  0.1618E+02
    -14.688  0.3590E+01  0.3558E+01  0.1677E+02  0.1665E+02
    -14.556  0.2547E+01  0.2809E+01  0.1710E+02  0.1702E+02
    -14.423  0.2141E+01  0.2104E+01  0.1739E+02  0.1730E+02
    -14.290  0.1267E+01  0.1617E+01  0.1756E+02  0.1752E+02
    -14.158  0.8566E+00  0.1091E+01  0.1767E+02  0.1766E+02
    -14.025  0.6655E+00  0.5775E+00  0.1776E+02  0.1774E+02
    -13.892  0.7262E+00  0.7944E+00  0.1785E+02  0.1784E+02
    -13.760  0.1524E+00  0.2325E+00  0.1787E+02  0.1787E+02
    -13.627  0.2675E-02  0.5500E-02  0.1787E+02  0.1787E+02
    -13.494  0.2206E-05  0.6229E-05  0.1787E+02  0.1787E+02
    -13.362  0.6523E-10  0.2619E-09  0.1788E+02  0.1788E+02
    -13.229  0.5230E-16  0.3661E-15  0.1788E+02  0.1788E+02
    -13.096  0.2722E-12  0.2698E-12  0.1788E+02  0.1788E+02
    -12.964  0.3899E-07  0.3872E-07  0.1788E+02  0.1788E+02
    -12.831  0.1847E-03  0.1839E-03  0.1788E+02  0.1788E+02
    -12.698  0.3239E-01  0.3232E-01  0.1788E+02  0.1788E+02
    -12.566  0.2752E+00  0.2750E+00  0.1792E+02  0.1792E+02
    -12.433  0.1579E+00  0.1581E+00  0.1794E+02  0.1794E+02
    -12.300  0.5457E-02  0.5475E-02  0.1794E+02  0.1794E+02
    -12.168  0.7960E-05  0.8004E-05  0.1794E+02  0.1794E+02
    -12.035  0.4048E-09  0.4080E-09  0.1794E+02  0.1794E+02
    -11.902  0.6277E-15  0.6800E-15  0.1794E+02  0.1794E+02
    -11.770  0.0000E+00  0.0000E+00  0.1794E+02  0.1794E+02
    -11.637  0.0000E+00  0.0000E+00  0.1794E+02  0.1794E+02
    -11.504  0.0000E+00  0.0000E+00  0.1794E+02  0.1794E+02
    -11.372  0.0000E+00  0.0000E+00  0.1794E+02  0.1794E+02
    -11.239  0.0000E+00  0.0000E+00  0.1794E+02  0.1794E+02
    -11.106  0.0000E+00  0.0000E+00  0.1794E+02  0.1794E+02
    -10.974  0.0000E+00  0.0000E+00  0.1794E+02  0.1794E+02
    -10.841  0.0000E+00  0.0000E+00  0.1794E+02  0.1794E+02
    -10.708  0.0000E+00  0.0000E+00  0.1794E+02  0.1794E+02
    -10.576  0.0000E+00  0.0000E+00  0.1794E+02  0.1794E+02
    -10.443  0.0000E+00  0.0000E+00  0.1794E+02  0.1794E+02
    -10.310  0.0000E+00  0.0000E+00  0.1794E+02  0.1794E+02
    -10.178  0.0000E+00  0.0000E+00  0.1794E+02  0.1794E+02
    -10.045  0.0000E+00  0.0000E+00  0.1794E+02  0.1794E+02
     -9.912  0.0000E+00  0.0000E+00  0.1794E+02  0.1794E+02
     -9.780  0.0000E+00  0.0000E+00  0.1794E+02  0.1794E+02
     -9.647  0.0000E+00  0.0000E+00  0.1794E+02  0.1794E+02
     -9.514  0.0000E+00  0.0000E+00  0.1794E+02  0.1794E+02
     -9.382  0.0000E+00  0.0000E+00  0.1794E+02  0.1794E+02
     -9.249  0.0000E+00  0.0000E+00  0.1794E+02  0.1794E+02
     -9.116  0.0000E+00  0.0000E+00  0.1794E+02  0.1794E+02
     -8.984  0.0000E+00  0.0000E+00  0.1794E+02  0.1794E+02
     -8.851  0.0000E+00  0.0000E+00  0.1794E+02  0.1794E+02
     -8.718  0.0000E+00  0.0000E+00  0.1794E+02  0.1794E+02
     -8.586  0.0000E+00  0.0000E+00  0.1794E+02  0.1794E+02
     -8.453  0.0000E+00  0.0000E+00  0.1794E+02  0.1794E+02
     -8.320  0.0000E+00  0.0000E+00  0.1794E+02  0.1794E+02
     -8.188  0.0000E+00  0.0000E+00  0.1794E+02  0.1794E+02
     -8.055  0.0000E+00  0.0000E+00  0.1794E+02  0.1794E+02
     -7.922  0.0000E+00  0.0000E+00  0.1794E+02  0.1794E+02
     -7.790  0.0000E+00  0.0000E+00  0.1794E+02  0.1794E+02
     -7.657  0.0000E+00  0.0000E+00  0.1794E+02  0.1794E+02
     -7.524  0.0000E+00  0.0000E+00  0.1794E+02  0.1794E+02
     -7.392  0.0000E+00  0.0000E+00  0.1794E+02  0.1794E+02
     -7.259  0.0000E+00  0.0000E+00  0.1794E+02  0.1794E+02
     -7.126  0.0000E+00  0.0000E+00  0.1794E+02  0.1794E+02
     -6.994  0.0000E+00  0.0000E+00  0.1794E+02  0.1794E+02
     -6.861  0.0000E+00  0.0000E+00  0.1794E+02  0.1794E+02
     -6.728  0.0000E+00  0.0000E+00  0.1794E+02  0.1794E+02
     -6.596  0.1831E-15  0.0000E+00  0.1794E+02  0.1794E+02
     -6.463  0.1501E-09  0.4809E-11  0.1794E+02  0.1794E+02
     -6.330  0.3937E-05  0.3267E-06  0.1794E+02  0.1794E+02
     -6.198  0.3566E-02  0.7464E-03  0.1794E+02  0.1794E+02
     -6.065  0.1332E+00  0.6581E-01  0.1796E+02  0.1795E+02
     -5.932  0.2906E+00  0.3050E+00  0.1799E+02  0.1799E+02
     -5.800  0.4340E-01  0.9785E-01  0.1800E+02  0.1800E+02
     -5.667  0.3239E-03  0.1745E-02  0.1800E+02  0.1800E+02
     -5.534  0.9354E-07  0.1241E-05  0.1800E+02  0.1800E+02
     -5.402  0.2996E-04  0.1942E-08  0.1800E+02  0.1800E+02
     -5.269  0.1190E-01  0.2557E-04  0.1800E+02  0.1800E+02
     -5.136  0.2273E+00  0.1359E-01  0.1803E+02  0.1800E+02
     -5.004  0.7376E+00  0.4188E+00  0.1813E+02  0.1806E+02
     -4.871  0.1506E+01  0.1494E+01  0.1833E+02  0.1826E+02
     -4.738  0.2134E+01  0.1777E+01  0.1861E+02  0.1849E+02
     -4.606  0.1324E+01  0.1184E+01  0.1879E+02  0.1865E+02
     -4.473  0.6856E+00  0.8315E+00  0.1888E+02  0.1876E+02
     -4.340  0.2775E+01  0.2908E+01  0.1925E+02  0.1914E+02
     -4.208  0.4801E+01  0.4669E+01  0.1988E+02  0.1976E+02
     -4.075  0.5056E+01  0.4732E+01  0.2055E+02  0.2039E+02
     -3.943  0.6871E+01  0.6503E+01  0.2147E+02  0.2125E+02
     -3.810  0.6395E+01  0.5958E+01  0.2231E+02  0.2204E+02
     -3.677  0.5141E+01  0.4681E+01  0.2300E+02  0.2267E+02
     -3.545  0.5174E+01  0.4441E+01  0.2368E+02  0.2325E+02
     -3.412  0.5142E+01  0.5147E+01  0.2437E+02  0.2394E+02
     -3.279  0.5901E+01  0.6140E+01  0.2515E+02  0.2475E+02
     -3.147  0.5903E+01  0.5557E+01  0.2593E+02  0.2549E+02
     -3.014  0.5254E+01  0.5159E+01  0.2663E+02  0.2617E+02
     -2.881  0.4753E+01  0.4433E+01  0.2726E+02  0.2676E+02
     -2.749  0.3887E+01  0.3578E+01  0.2777E+02  0.2724E+02
     -2.616  0.4229E+01  0.4267E+01  0.2834E+02  0.2780E+02
     -2.483  0.5084E+01  0.4719E+01  0.2901E+02  0.2843E+02
     -2.351  0.7467E+01  0.6986E+01  0.3000E+02  0.2936E+02
     -2.218  0.7282E+01  0.6967E+01  0.3097E+02  0.3028E+02
     -2.085  0.7350E+01  0.7442E+01  0.3194E+02  0.3127E+02
     -1.953  0.9124E+01  0.9048E+01  0.3315E+02  0.3247E+02
     -1.820  0.9805E+01  0.9690E+01  0.3445E+02  0.3375E+02
     -1.687  0.7982E+01  0.8035E+01  0.3551E+02  0.3482E+02
     -1.555  0.7114E+01  0.6920E+01  0.3646E+02  0.3574E+02
     -1.422  0.7470E+01  0.6842E+01  0.3745E+02  0.3664E+02
     -1.289  0.4846E+01  0.3749E+01  0.3809E+02  0.3714E+02
     -1.157  0.2470E+01  0.1021E+01  0.3842E+02  0.3728E+02
     -1.024  0.2547E+01  0.1049E+01  0.3876E+02  0.3742E+02
     -0.891  0.2290E+01  0.1357E+01  0.3906E+02  0.3760E+02
     -0.759  0.1546E+01  0.1464E+01  0.3926E+02  0.3779E+02
     -0.626  0.7374E+00  0.1491E+01  0.3936E+02  0.3799E+02
     -0.493  0.5213E+00  0.1425E+01  0.3943E+02  0.3818E+02
     -0.361  0.4883E-01  0.1587E+01  0.3944E+02  0.3839E+02
     -0.228  0.4361E-03  0.1238E+01  0.3944E+02  0.3855E+02
     -0.095  0.3398E-01  0.1140E+01  0.3944E+02  0.3870E+02
      0.037  0.2779E+00  0.1257E+01  0.3948E+02  0.3887E+02
      0.170  0.1539E+00  0.1206E+01  0.3950E+02  0.3903E+02
      0.303  0.5109E-02  0.6462E+00  0.3950E+02  0.3912E+02
      0.435  0.1203E-02  0.2341E+00  0.3950E+02  0.3915E+02
      0.568  0.2020E+00  0.4770E+00  0.3953E+02  0.3921E+02
      0.701  0.3565E+01  0.3540E+01  0.4000E+02  0.3968E+02
      0.833  0.1679E+02  0.1646E+02  0.4223E+02  0.4186E+02
      0.966  0.2921E+02  0.2907E+02  0.4610E+02  0.4572E+02
      1.099  0.3027E+02  0.3112E+02  0.5012E+02  0.4985E+02
      1.231  0.1168E+02  0.1346E+02  0.5167E+02  0.5163E+02
      1.364  0.6240E+00  0.8771E+00  0.5175E+02  0.5175E+02
      1.497  0.2207E-02  0.4038E-02  0.5175E+02  0.5175E+02
      1.629  0.3460E-06  0.8590E-06  0.5175E+02  0.5175E+02
      1.762  0.2022E-11  0.6986E-11  0.5175E+02  0.5175E+02
      1.895  0.0000E+00  0.0000E+00  0.5175E+02  0.5175E+02
      2.027  0.0000E+00  0.0000E+00  0.5175E+02  0.5175E+02
      2.160  0.0000E+00  0.0000E+00  0.5175E+02  0.5175E+02
      2.293  0.0000E+00  0.0000E+00  0.5175E+02  0.5175E+02
      2.425  0.0000E+00  0.0000E+00  0.5175E+02  0.5175E+02
      2.558  0.0000E+00  0.0000E+00  0.5175E+02  0.5175E+02
      2.691  0.0000E+00  0.0000E+00  0.5175E+02  0.5175E+02
      2.823  0.0000E+00  0.0000E+00  0.5175E+02  0.5175E+02
      2.956  0.0000E+00  0.0000E+00  0.5175E+02  0.5175E+02
