  157  157   16    2
  0.3048133E+02  0.1552620E-08  0.1552619E-08  0.2292320E-08  0.0000000E+00
  1.000000000000000E-004
  CAR 
 CeO2                                    
   1248      1    828
 
  0.0000000E+00  0.0000000E+00  0.0000000E+00  0.1000000E+01
    1      -35.026084    -35.033869   1.000000   1.000000
    2      -35.017599    -35.016874   1.000000   1.000000
    3      -34.995056    -34.995897   1.000000   1.000000
    4      -34.978185    -34.984363   1.000000   1.000000
    5      -34.967143    -34.966429   1.000000   1.000000
    6      -34.957016    -34.952477   1.000000   1.000000
    7      -34.943799    -34.944874   1.000000   1.000000
    8      -34.940376    -34.939909   1.000000   1.000000
    9      -34.935465    -34.935208   1.000000   1.000000
   10      -34.931287    -34.930636   1.000000   1.000000
   11      -34.928953    -34.928482   1.000000   1.000000
   12      -34.916667    -34.916293   1.000000   1.000000
   13      -34.912235    -34.912182   1.000000   1.000000
   14      -34.904902    -34.903789   1.000000   1.000000
   15      -34.897197    -34.896951   1.000000   1.000000
   16      -34.893381    -34.893337   1.000000   1.000000
   17      -34.888739    -34.887823   1.000000   1.000000
   18      -34.887537    -34.887148   1.000000   1.000000
   19      -34.883980    -34.883596   1.000000   1.000000
   20      -34.878740    -34.878401   1.000000   1.000000
   21      -34.876874    -34.876797   1.000000   1.000000
   22      -34.872993    -34.872495   1.000000   1.000000
   23      -34.872780    -34.872118   1.000000   1.000000
   24      -34.870005    -34.869481   1.000000   1.000000
   25      -34.869212    -34.868446   1.000000   1.000000
   26      -34.864330    -34.863910   1.000000   1.000000
   27      -34.863826    -34.863303   1.000000   1.000000
   28      -34.860805    -34.860464   1.000000   1.000000
   29      -34.856773    -34.856643   1.000000   1.000000
   30      -34.855295    -34.854847   1.000000   1.000000
   31      -34.853607    -34.853260   1.000000   1.000000
   32      -34.847663    -34.847086   1.000000   1.000000
   33      -34.844959    -34.844737   1.000000   1.000000
   34      -34.839586    -34.839245   1.000000   1.000000
   35      -34.835084    -34.834351   1.000000   1.000000
   36      -34.832259    -34.831753   1.000000   1.000000
   37      -34.823085    -34.822278   1.000000   1.000000
   38      -34.811743    -34.810081   1.000000   1.000000
   39      -34.806228    -34.803262   1.000000   1.000000
   40      -34.789677    -34.789296   1.000000   1.000000
   41      -34.657516    -34.659905   1.000000   1.000000
   42      -33.707792    -33.340168   1.000000   1.000000
   43      -33.654327    -33.248981   1.000000   1.000000
   44      -33.463838    -33.184622   1.000000   1.000000
   45      -33.450130    -33.004787   1.000000   1.000000
   46      -33.439979    -32.976853   1.000000   1.000000
   47      -33.417356    -32.967519   1.000000   1.000000
   48      -32.869641    -32.946123   1.000000   1.000000
   49      -20.096066    -20.095168   1.000000   1.000000
   50      -20.070743    -20.068611   1.000000   1.000000
   51      -20.059011    -20.057312   1.000000   1.000000
   52      -19.889658    -19.889074   1.000000   1.000000
   53      -19.847021    -19.846387   1.000000   1.000000
   54      -19.777197    -19.773424   1.000000   1.000000
   55      -19.770293    -19.766140   1.000000   1.000000
   56      -19.745900    -19.744112   1.000000   1.000000
   57      -19.740057    -19.739653   1.000000   1.000000
   58      -19.730575    -19.732191   1.000000   1.000000
   59      -19.723009    -19.722606   1.000000   1.000000
   60      -19.721777    -19.719566   1.000000   1.000000
   61      -19.719328    -19.718845   1.000000   1.000000
   62      -19.696510    -19.694347   1.000000   1.000000
   63      -19.695358    -19.693780   1.000000   1.000000
   64      -19.690792    -19.690501   1.000000   1.000000
   65      -19.677032    -19.671360   1.000000   1.000000
   66      -19.672237    -19.666687   1.000000   1.000000
   67      -19.656989    -19.650945   1.000000   1.000000
   68      -19.640322    -19.633934   1.000000   1.000000
   69      -19.633386    -19.629040   1.000000   1.000000
   70      -19.627984    -19.621369   1.000000   1.000000
   71      -19.615002    -19.611155   1.000000   1.000000
   72      -19.605376    -19.599590   1.000000   1.000000
   73      -19.598754    -19.592106   1.000000   1.000000
   74      -19.575904    -19.566626   1.000000   1.000000
   75      -19.543403    -19.538946   1.000000   1.000000
   76      -19.520710    -19.513269   1.000000   1.000000
   77      -19.434858    -19.432503   1.000000   1.000000
   78      -19.416223    -19.409548   1.000000   1.000000
   79      -19.409179    -19.405754   1.000000   1.000000
   80      -19.388351    -19.382450   1.000000   1.000000
   81      -19.362685    -19.352484   1.000000   1.000000
   82      -19.340746    -19.339143   1.000000   1.000000
   83      -19.329042    -19.319520   1.000000   1.000000
   84      -19.321739    -19.314543   1.000000   1.000000
   85      -19.314507    -19.308714   1.000000   1.000000
   86      -19.307984    -19.293618   1.000000   1.000000
   87      -19.242522    -19.235169   1.000000   1.000000
   88      -19.184073    -19.170575   1.000000   1.000000
   89      -19.095418    -19.092120   1.000000   1.000000
   90      -19.057518    -19.052761   1.000000   1.000000
   91      -19.037870    -19.030851   1.000000   1.000000
   92      -19.027762    -19.022038   1.000000   1.000000
   93      -19.015956    -19.011035   1.000000   1.000000
   94      -18.999964    -18.994329   1.000000   1.000000
   95      -18.990630    -18.981854   1.000000   1.000000
   96      -18.951475    -18.940470   1.000000   1.000000
   97      -18.918693    -18.910312   1.000000   1.000000
   98      -18.895833    -18.884354   1.000000   1.000000
   99      -18.875158    -18.860519   1.000000   1.000000
  100      -18.848198    -18.843950   1.000000   1.000000
  101      -18.799917    -18.778470   1.000000   1.000000
  102      -18.707293    -18.692857   1.000000   1.000000
  103      -18.703643    -18.685241   1.000000   1.000000
  104      -18.692782    -18.675125   1.000000   1.000000
  105      -18.647551    -18.628594   1.000000   1.000000
  106      -18.611564    -18.589002   1.000000   1.000000
  107      -18.550548    -18.538390   1.000000   1.000000
  108      -18.530850    -18.515272   1.000000   1.000000
  109      -18.515625    -18.507696   1.000000   1.000000
  110      -18.511717    -18.505089   1.000000   1.000000
  111      -18.504258    -18.501470   1.000000   1.000000
  112      -18.503207    -18.497542   1.000000   1.000000
  113      -18.495776    -18.473998   1.000000   1.000000
  114      -18.488917    -18.463692   1.000000   1.000000
  115      -18.458369    -18.436939   1.000000   1.000000
  116      -18.402125    -18.380100   1.000000   1.000000
  117      -18.361401    -18.351612   1.000000   1.000000
  118      -18.347413    -18.311958   1.000000   1.000000
  119      -18.310094    -18.299045   1.000000   1.000000
  120      -18.279269    -18.235882   1.000000   1.000000
  121      -18.251018    -18.204401   1.000000   1.000000
  122      -18.233913    -18.158154   1.000000   1.000000
  123      -18.124738    -18.098785   1.000000   1.000000
  124      -18.113418    -18.076129   1.000000   1.000000
  125      -18.049636    -18.034458   1.000000   1.000000
  126      -18.024364    -17.995955   1.000000   1.000000
  127      -18.008773    -17.968324   1.000000   1.000000
  128      -17.994424    -17.932467   1.000000   1.000000
  129      -17.966393    -17.927096   1.000000   1.000000
  130      -17.896942    -17.874152   1.000000   1.000000
  131      -17.730137    -17.719535   1.000000   1.000000
  132      -17.631816    -17.602405   1.000000   1.000000
  133      -17.515080    -17.492385   1.000000   1.000000
  134      -17.487985    -17.474969   1.000000   1.000000
  135      -17.473148    -17.467589   1.000000   1.000000
  136      -17.468619    -17.465521   1.000000   1.000000
  137      -17.466539    -17.460021   1.000000   1.000000
  138      -17.461817    -17.454962   1.000000   1.000000
  139      -17.455906    -17.451784   1.000000   1.000000
  140      -17.449724    -17.445215   1.000000   1.000000
  141      -17.432630    -17.426545   1.000000   1.000000
  142      -17.427372    -17.417261   1.000000   1.000000
  143      -17.420272    -17.413208   1.000000   1.000000
  144      -17.416051    -17.404859   1.000000   1.000000
  145      -17.406358    -17.400264   1.000000   1.000000
  146      -17.398273    -17.387302   1.000000   1.000000
  147      -17.372435    -17.366618   1.000000   1.000000
  148      -17.368047    -17.362332   1.000000   1.000000
  149      -17.350664    -17.337803   1.000000   1.000000
  150      -17.339679    -17.331799   1.000000   1.000000
  151      -17.331817    -17.326733   1.000000   1.000000
  152      -17.323998    -17.314826   1.000000   1.000000
  153      -17.313633    -17.307609   1.000000   1.000000
  154      -17.305937    -17.302572   1.000000   1.000000
  155      -17.301279    -17.296757   1.000000   1.000000
  156      -17.299241    -17.295194   1.000000   1.000000
  157      -17.291105    -17.289028   1.000000   1.000000
  158      -17.290117    -17.281683   1.000000   1.000000
  159      -17.284043    -17.279416   1.000000   1.000000
  160      -17.280159    -17.272832   1.000000   1.000000
  161      -17.266299    -17.263626   1.000000   1.000000
  162      -17.265432    -17.259747   1.000000   1.000000
  163      -17.263871    -17.258111   1.000000   1.000000
  164      -17.259646    -17.257231   1.000000   1.000000
  165      -17.250496    -17.243901   1.000000   1.000000
  166      -17.244544    -17.236820   1.000000   1.000000
  167      -17.231557    -17.224509   1.000000   1.000000
  168      -17.222981    -17.211745   1.000000   1.000000
  169      -17.218692    -17.202018   1.000000   1.000000
  170      -17.200075    -17.184424   1.000000   1.000000
  171      -17.186557    -17.176261   1.000000   1.000000
  172      -17.176936    -17.172398   1.000000   1.000000
  173      -17.176685    -17.171207   1.000000   1.000000
  174      -17.167895    -17.163780   1.000000   1.000000
  175      -17.165989    -17.163346   1.000000   1.000000
  176      -17.163853    -17.156999   1.000000   1.000000
  177      -17.159160    -17.155573   1.000000   1.000000
  178      -17.154902    -17.150917   1.000000   1.000000
  179      -17.149938    -17.139471   1.000000   1.000000
  180      -17.103977    -17.090719   1.000000   1.000000
  181      -17.089543    -17.073075   1.000000   1.000000
  182      -17.064895    -17.061204   1.000000   1.000000
  183      -17.063678    -17.060853   1.000000   1.000000
  184      -17.041305    -17.026479   1.000000   1.000000
  185      -17.032049    -17.022637   1.000000   1.000000
  186      -17.029358    -17.002977   1.000000   1.000000
  187      -17.015826    -16.987528   1.000000   1.000000
  188      -16.999584    -16.978843   1.000000   1.000000
  189      -16.974632    -16.949734   1.000000   1.000000
  190      -16.912240    -16.868754   1.000000   1.000000
  191      -16.885490    -16.857636   1.000000   1.000000
  192      -16.839919    -16.801461   1.000000   1.000000
  193      -16.800407    -16.718365   1.000000   1.000000
  194      -16.785453    -16.715006   1.000000   1.000000
  195      -16.747083    -16.665781   1.000000   1.000000
  196      -16.712592    -16.650763   1.000000   1.000000
  197      -16.650089    -16.624418   1.000000   1.000000
  198      -16.600204    -16.531398   1.000000   1.000000
  199      -16.558160    -16.494573   1.000000   1.000000
  200      -16.526554    -16.440058   1.000000   1.000000
  201      -16.498662    -16.415231   1.000000   1.000000
  202      -16.460556    -16.392673   1.000000   1.000000
  203      -16.452989    -16.380665   1.000000   1.000000
  204      -16.404320    -16.349163   1.000000   1.000000
  205      -16.393144    -16.307718   1.000000   1.000000
  206      -16.362176    -16.295660   1.000000   1.000000
  207      -16.344547    -16.271418   1.000000   1.000000
  208      -16.328805    -16.234966   1.000000   1.000000
  209      -16.307613    -16.211050   1.000000   1.000000
  210      -16.239483    -16.163983   1.000000   1.000000
  211      -16.192756    -16.100855   1.000000   1.000000
  212      -16.150928    -16.083791   1.000000   1.000000
  213      -16.126871    -16.059139   1.000000   1.000000
  214      -16.100052    -16.026480   1.000000   1.000000
  215      -16.072283    -15.967359   1.000000   1.000000
  216      -16.036809    -15.942188   1.000000   1.000000
  217      -15.873016    -15.869009   1.000000   1.000000
  218      -15.857639    -15.827736   1.000000   1.000000
  219      -15.830430    -15.808160   1.000000   1.000000
  220      -15.822249    -15.790800   1.000000   1.000000
  221      -15.814396    -15.781620   1.000000   1.000000
  222      -15.808353    -15.766920   1.000000   1.000000
  223      -15.766900    -15.723571   1.000000   1.000000
  224      -15.759862    -15.716332   1.000000   1.000000
  225      -15.722381    -15.676637   1.000000   1.000000
  226      -15.677001    -15.618198   1.000000   1.000000
  227      -15.644100    -15.590140   1.000000   1.000000
  228      -15.623314    -15.561242   1.000000   1.000000
  229      -15.560590    -15.536057   1.000000   1.000000
  230      -15.545647    -15.498751   1.000000   1.000000
  231      -15.514124    -15.490397   1.000000   1.000000
  232      -15.500121    -15.467818   1.000000   1.000000
  233      -15.482724    -15.455912   1.000000   1.000000
  234      -15.460135    -15.418972   1.000000   1.000000
  235      -15.430846    -15.392696   1.000000   1.000000
  236      -15.370639    -15.340181   1.000000   1.000000
  237      -15.353720    -15.329278   1.000000   1.000000
  238      -15.327156    -15.311220   1.000000   1.000000
  239      -15.324926    -15.305800   1.000000   1.000000
  240      -15.319241    -15.279626   1.000000   1.000000
  241      -15.303017    -15.258576   1.000000   1.000000
  242      -15.273512    -15.222134   1.000000   1.000000
  243      -15.250054    -15.208007   1.000000   1.000000
  244      -15.233303    -15.193152   1.000000   1.000000
  245      -15.187638    -15.170635   1.000000   1.000000
  246      -15.158117    -15.093551   1.000000   1.000000
  247      -15.127961    -15.079630   1.000000   1.000000
  248      -15.123075    -15.077471   1.000000   1.000000
  249      -15.092710    -15.051312   1.000000   1.000000
  250      -15.038073    -14.996021   1.000000   1.000000
  251      -15.025270    -14.966173   1.000000   1.000000
  252      -14.992748    -14.952490   1.000000   1.000000
  253      -14.948367    -14.935412   1.000000   1.000000
  254      -14.915408    -14.898321   1.000000   1.000000
  255      -14.906888    -14.887381   1.000000   1.000000
  256      -14.904507    -14.880784   1.000000   1.000000
  257      -14.894430    -14.876489   1.000000   1.000000
  258      -14.884393    -14.846299   1.000000   1.000000
  259      -14.868309    -14.839541   1.000000   1.000000
  260      -14.833013    -14.804653   1.000000   1.000000
  261      -14.817549    -14.788559   1.000000   1.000000
  262      -14.806435    -14.765416   1.000000   1.000000
  263      -14.791597    -14.752619   1.000000   1.000000
  264      -14.780973    -14.741356   1.000000   1.000000
  265      -14.759228    -14.719373   1.000000   1.000000
  266      -14.733520    -14.698997   1.000000   1.000000
  267      -14.714736    -14.697498   1.000000   1.000000
  268      -14.706926    -14.672014   1.000000   1.000000
  269      -14.696248    -14.663341   1.000000   1.000000
  270      -14.678120    -14.644094   1.000000   1.000000
  271      -14.651819    -14.623894   1.000000   1.000000
  272      -14.634632    -14.576991   1.000000   1.000000
  273      -14.619497    -14.571869   1.000000   1.000000
  274      -14.523748    -14.497807   1.000000   1.000000
  275      -14.513560    -14.489691   1.000000   1.000000
  276      -14.506796    -14.471698   1.000000   1.000000
  277      -14.482166    -14.459312   1.000000   1.000000
  278      -14.466903    -14.398919   1.000000   1.000000
  279      -14.444763    -14.378579   1.000000   1.000000
  280      -14.382704    -14.320172   1.000000   1.000000
  281      -14.314625    -14.285106   1.000000   1.000000
  282      -14.248416    -14.235165   1.000000   1.000000
  283      -14.202524    -14.199377   1.000000   1.000000
  284      -14.058476    -14.034176   1.000000   1.000000
  285      -13.995158    -13.961510   1.000000   1.000000
  286      -13.940560    -13.925442   1.000000   1.000000
  287      -12.593457    -12.593368   1.000000   1.000000
  288       -6.026047     -5.989129   1.000000   1.000000
  289       -5.130851     -4.993600   1.000000   1.000000
  290       -4.998640     -4.956694   1.000000   1.000000
  291       -4.968394     -4.918816   1.000000   1.000000
  292       -4.951068     -4.910221   1.000000   1.000000
  293       -4.909736     -4.838487   1.000000   1.000000
  294       -4.818106     -4.805649   1.000000   1.000000
  295       -4.808851     -4.796056   1.000000   1.000000
  296       -4.798308     -4.790165   1.000000   1.000000
  297       -4.789652     -4.716703   1.000000   1.000000
  298       -4.775046     -4.653414   1.000000   1.000000
  299       -4.736724     -4.635074   1.000000   1.000000
  300       -4.685328     -4.469835   1.000000   1.000000
  301       -4.655674     -4.412412   1.000000   1.000000
  302       -4.471260     -4.401164   1.000000   1.000000
  303       -4.407864     -4.389024   1.000000   1.000000
  304       -4.403624     -4.365684   1.000000   1.000000
  305       -4.372848     -4.361337   1.000000   1.000000
  306       -4.366139     -4.341180   1.000000   1.000000
  307       -4.341033     -4.325888   1.000000   1.000000
  308       -4.325647     -4.313872   1.000000   1.000000
  309       -4.318686     -4.309059   1.000000   1.000000
  310       -4.313782     -4.297227   1.000000   1.000000
  311       -4.306414     -4.285733   1.000000   1.000000
  312       -4.298204     -4.271287   1.000000   1.000000
  313       -4.282506     -4.256211   1.000000   1.000000
  314       -4.267113     -4.253050   1.000000   1.000000
  315       -4.265876     -4.240054   1.000000   1.000000
  316       -4.247011     -4.232844   1.000000   1.000000
  317       -4.245483     -4.205834   1.000000   1.000000
  318       -4.218909     -4.185608   1.000000   1.000000
  319       -4.203005     -4.176294   1.000000   1.000000
  320       -4.178865     -4.154803   1.000000   1.000000
  321       -4.167519     -4.148737   1.000000   1.000000
  322       -4.164098     -4.133181   1.000000   1.000000
  323       -4.152889     -4.126779   1.000000   1.000000
  324       -4.135304     -4.106370   1.000000   1.000000
  325       -4.129686     -4.088057   1.000000   1.000000
  326       -4.115883     -4.073832   1.000000   1.000000
  327       -4.091530     -4.061073   1.000000   1.000000
  328       -4.085850     -4.054494   1.000000   1.000000
  329       -4.069931     -4.033850   1.000000   1.000000
  330       -4.060421     -4.021764   1.000000   1.000000
  331       -4.040069     -4.013548   1.000000   1.000000
  332       -4.035481     -4.001183   1.000000   1.000000
  333       -4.027289     -3.997112   1.000000   1.000000
  334       -4.016015     -3.991444   1.000000   1.000000
  335       -4.010267     -3.983358   1.000000   1.000000
  336       -3.998609     -3.977952   1.000000   1.000000
  337       -3.992130     -3.975504   1.000000   1.000000
  338       -3.985602     -3.964963   1.000000   1.000000
  339       -3.980110     -3.960755   1.000000   1.000000
  340       -3.969373     -3.957645   1.000000   1.000000
  341       -3.964101     -3.950861   1.000000   1.000000
  342       -3.954739     -3.944029   1.000000   1.000000
  343       -3.951068     -3.931448   1.000000   1.000000
  344       -3.943376     -3.913947   1.000000   1.000000
  345       -3.941960     -3.908721   1.000000   1.000000
  346       -3.932484     -3.901160   1.000000   1.000000
  347       -3.923129     -3.893329   1.000000   1.000000
  348       -3.917820     -3.889118   1.000000   1.000000
  349       -3.905310     -3.869769   1.000000   1.000000
  350       -3.903129     -3.862403   1.000000   1.000000
  351       -3.898240     -3.838046   1.000000   1.000000
  352       -3.886370     -3.835599   1.000000   1.000000
  353       -3.876809     -3.814184   1.000000   1.000000
  354       -3.864212     -3.787951   1.000000   1.000000
  355       -3.860987     -3.783049   1.000000   1.000000
  356       -3.821010     -3.772941   1.000000   1.000000
  357       -3.815394     -3.769687   1.000000   1.000000
  358       -3.806714     -3.752834   1.000000   1.000000
  359       -3.798752     -3.739065   1.000000   1.000000
  360       -3.781120     -3.720813   1.000000   1.000000
  361       -3.766263     -3.715260   1.000000   1.000000
  362       -3.746025     -3.696727   1.000000   1.000000
  363       -3.740341     -3.673795   1.000000   1.000000
  364       -3.726454     -3.659385   1.000000   1.000000
  365       -3.718340     -3.654707   1.000000   1.000000
  366       -3.711052     -3.634183   1.000000   1.000000
  367       -3.689507     -3.624800   1.000000   1.000000
  368       -3.681327     -3.608355   1.000000   1.000000
  369       -3.665846     -3.604118   1.000000   1.000000
  370       -3.660284     -3.585546   1.000000   1.000000
  371       -3.640710     -3.563010   1.000000   1.000000
  372       -3.632514     -3.548439   1.000000   1.000000
  373       -3.624725     -3.538362   1.000000   1.000000
  374       -3.616504     -3.510767   1.000000   1.000000
  375       -3.612690     -3.505644   1.000000   1.000000
  376       -3.596971     -3.498489   1.000000   1.000000
  377       -3.581995     -3.483827   1.000000   1.000000
  378       -3.550057     -3.467296   1.000000   1.000000
  379       -3.545694     -3.447290   1.000000   1.000000
  380       -3.538416     -3.436567   1.000000   1.000000
  381       -3.518139     -3.429026   1.000000   1.000000
  382       -3.513799     -3.427810   1.000000   1.000000
  383       -3.501425     -3.419628   1.000000   1.000000
  384       -3.489439     -3.413598   1.000000   1.000000
  385       -3.477347     -3.395361   1.000000   1.000000
  386       -3.462733     -3.387548   1.000000   1.000000
  387       -3.454144     -3.361832   1.000000   1.000000
  388       -3.435130     -3.355328   1.000000   1.000000
  389       -3.426183     -3.348901   1.000000   1.000000
  390       -3.418922     -3.343412   1.000000   1.000000
  391       -3.393397     -3.332427   1.000000   1.000000
  392       -3.386863     -3.325291   1.000000   1.000000
  393       -3.379990     -3.323360   1.000000   1.000000
  394       -3.361887     -3.303141   1.000000   1.000000
  395       -3.353313     -3.294763   1.000000   1.000000
  396       -3.340683     -3.293403   1.000000   1.000000
  397       -3.333121     -3.287387   1.000000   1.000000
  398       -3.329013     -3.268812   1.000000   1.000000
  399       -3.313145     -3.262273   1.000000   1.000000
  400       -3.304237     -3.252652   1.000000   1.000000
  401       -3.299577     -3.241554   1.000000   1.000000
  402       -3.285302     -3.216988   1.000000   1.000000
  403       -3.277401     -3.203678   1.000000   1.000000
  404       -3.269909     -3.190832   1.000000   1.000000
  405       -3.260109     -3.189142   1.000000   1.000000
  406       -3.248156     -3.181452   1.000000   1.000000
  407       -3.244572     -3.170471   1.000000   1.000000
  408       -3.232772     -3.147768   1.000000   1.000000
  409       -3.227467     -3.135271   1.000000   1.000000
  410       -3.215660     -3.127305   1.000000   1.000000
  411       -3.195255     -3.116107   1.000000   1.000000
  412       -3.184606     -3.100978   1.000000   1.000000
  413       -3.173754     -3.091530   1.000000   1.000000
  414       -3.168148     -3.081243   1.000000   1.000000
  415       -3.160260     -3.064919   1.000000   1.000000
  416       -3.140285     -3.059526   1.000000   1.000000
  417       -3.130802     -3.039973   1.000000   1.000000
  418       -3.111518     -3.030581   1.000000   1.000000
  419       -3.102548     -3.008137   1.000000   1.000000
  420       -3.098635     -3.004699   1.000000   1.000000
  421       -3.077827     -2.990490   1.000000   1.000000
  422       -3.076743     -2.980623   1.000000   1.000000
  423       -3.059598     -2.975062   1.000000   1.000000
  424       -3.042180     -2.970569   1.000000   1.000000
  425       -3.022314     -2.949804   1.000000   1.000000
  426       -3.016658     -2.934045   1.000000   1.000000
  427       -3.009723     -2.917459   1.000000   1.000000
  428       -3.002818     -2.904840   1.000000   1.000000
  429       -2.995790     -2.878971   1.000000   1.000000
  430       -2.974604     -2.872727   1.000000   1.000000
  431       -2.964627     -2.864127   1.000000   1.000000
  432       -2.941392     -2.802223   1.000000   1.000000
  433       -2.924115     -2.777997   1.000000   1.000000
  434       -2.918121     -2.768573   1.000000   1.000000
  435       -2.913087     -2.757431   1.000000   1.000000
  436       -2.909602     -2.746515   1.000000   1.000000
  437       -2.886225     -2.728165   1.000000   1.000000
  438       -2.877621     -2.722413   1.000000   1.000000
  439       -2.862047     -2.711010   1.000000   1.000000
  440       -2.830205     -2.698725   1.000000   1.000000
  441       -2.800706     -2.672947   1.000000   1.000000
  442       -2.788242     -2.661866   1.000000   1.000000
  443       -2.765031     -2.659649   1.000000   1.000000
  444       -2.749360     -2.653701   1.000000   1.000000
  445       -2.745522     -2.647559   1.000000   1.000000
  446       -2.733393     -2.613797   1.000000   1.000000
  447       -2.712995     -2.592681   1.000000   1.000000
  448       -2.697014     -2.558963   1.000000   1.000000
  449       -2.688227     -2.547790   1.000000   1.000000
  450       -2.671181     -2.530354   1.000000   1.000000
  451       -2.661270     -2.517495   1.000000   1.000000
  452       -2.648100     -2.491659   1.000000   1.000000
  453       -2.638384     -2.487034   1.000000   1.000000
  454       -2.627815     -2.480340   1.000000   1.000000
  455       -2.599424     -2.474223   1.000000   1.000000
  456       -2.584882     -2.467348   1.000000   1.000000
  457       -2.560307     -2.457749   1.000000   1.000000
  458       -2.536919     -2.453951   1.000000   1.000000
  459       -2.525381     -2.437740   1.000000   1.000000
  460       -2.518119     -2.429399   1.000000   1.000000
  461       -2.495906     -2.426114   1.000000   1.000000
  462       -2.493581     -2.419022   1.000000   1.000000
  463       -2.484091     -2.413983   1.000000   1.000000
  464       -2.475848     -2.409664   1.000000   1.000000
  465       -2.471253     -2.404130   1.000000   1.000000
  466       -2.462065     -2.395095   1.000000   1.000000
  467       -2.450976     -2.384383   1.000000   1.000000
  468       -2.444194     -2.380122   1.000000   1.000000
  469       -2.439105     -2.370998   1.000000   1.000000
  470       -2.431471     -2.363318   1.000000   1.000000
  471       -2.424811     -2.350264   1.000000   1.000000
  472       -2.419896     -2.335468   1.000000   1.000000
  473       -2.411634     -2.330774   1.000000   1.000000
  474       -2.403531     -2.316607   1.000000   1.000000
  475       -2.399417     -2.305078   1.000000   1.000000
  476       -2.395675     -2.291169   1.000000   1.000000
  477       -2.384375     -2.282796   1.000000   1.000000
  478       -2.383500     -2.269726   1.000000   1.000000
  479       -2.374604     -2.262681   1.000000   1.000000
  480       -2.357658     -2.254382   1.000000   1.000000
  481       -2.352163     -2.248693   1.000000   1.000000
  482       -2.350499     -2.246112   1.000000   1.000000
  483       -2.335255     -2.232537   1.000000   1.000000
  484       -2.316629     -2.220321   1.000000   1.000000
  485       -2.306557     -2.217928   1.000000   1.000000
  486       -2.302956     -2.208980   1.000000   1.000000
  487       -2.295921     -2.205172   1.000000   1.000000
  488       -2.282396     -2.197179   1.000000   1.000000
  489       -2.275086     -2.187879   1.000000   1.000000
  490       -2.264662     -2.179219   1.000000   1.000000
  491       -2.261556     -2.165114   1.000000   1.000000
  492       -2.246851     -2.157612   1.000000   1.000000
  493       -2.239162     -2.150926   1.000000   1.000000
  494       -2.233967     -2.134930   1.000000   1.000000
  495       -2.229405     -2.127722   1.000000   1.000000
  496       -2.220594     -2.122363   1.000000   1.000000
  497       -2.214783     -2.114239   1.000000   1.000000
  498       -2.202158     -2.101300   1.000000   1.000000
  499       -2.192105     -2.094875   1.000000   1.000000
  500       -2.183186     -2.085038   1.000000   1.000000
  501       -2.182197     -2.078123   1.000000   1.000000
  502       -2.172812     -2.074034   1.000000   1.000000
  503       -2.158769     -2.066904   1.000000   1.000000
  504       -2.152296     -2.052604   1.000000   1.000000
  505       -2.134230     -2.047733   1.000000   1.000000
  506       -2.125845     -2.042667   1.000000   1.000000
  507       -2.118601     -2.032857   1.000000   1.000000
  508       -2.105413     -2.023504   1.000000   1.000000
  509       -2.099780     -2.020806   1.000000   1.000000
  510       -2.092850     -2.011913   1.000000   1.000000
  511       -2.081079     -1.998954   1.000000   1.000000
  512       -2.070159     -1.994533   1.000000   1.000000