       N       E                     dE             d eps       ncg     rms          rms(c)
DAV:   1     0.202168509479E+05    0.20217E+05   -0.48060E+05  3344   0.152E+03
DAV:   2     0.756262943276E+04   -0.12654E+05   -0.10985E+05  3672   0.384E+02
DAV:   3     0.754041091212E+03   -0.68086E+04   -0.64920E+04  4400   0.261E+02
DAV:   4    -0.116418984429E+04   -0.19182E+04   -0.18194E+04  4592   0.138E+02
DAV:   5    -0.137202603832E+04   -0.20784E+03   -0.20521E+03  5496   0.585E+01    0.130E+02
DAV:   6    -0.103737834940E+04    0.33465E+03   -0.36968E+03  4664   0.854E+01    0.240E+02
DAV:   7    -0.117740973029E+04   -0.14003E+03   -0.99895E+03  5160   0.283E+02    0.339E+02
DAV:   8    -0.959713388563E+03    0.21770E+03   -0.47330E+03  4448   0.217E+02    0.851E+01
DAV:   9    -0.100177846091E+04   -0.42065E+02   -0.22194E+03  5160   0.946E+01    0.684E+01
DAV:  10    -0.102226079277E+04   -0.20482E+02   -0.41569E+02  5712   0.388E+01    0.152E+02
DAV:  11    -0.969570689835E+03    0.52690E+02   -0.88397E+01  4744   0.192E+01    0.671E+01
DAV:  12    -0.905198152238E+03    0.64373E+02   -0.12557E+02  4384   0.234E+01    0.653E+01
DAV:  13    -0.870603448133E+03    0.34595E+02   -0.13813E+02  5456   0.221E+01    0.650E+01
DAV:  14    -0.842686623598E+03    0.27917E+02   -0.15146E+02  5408   0.152E+01    0.488E+01
DAV:  15    -0.794552558443E+03    0.48134E+02   -0.59837E+01  4968   0.200E+01    0.441E+01
DAV:  16    -0.760797735224E+03    0.33755E+02   -0.49186E+01  5152   0.175E+01    0.395E+01
DAV:  17    -0.739784625087E+03    0.21013E+02   -0.32938E+01  5840   0.161E+01    0.457E+01
DAV:  18    -0.730754973814E+03    0.90297E+01   -0.30968E+01  6128   0.942E+00    0.340E+01
DAV:  19    -0.730337986743E+03    0.41699E+00   -0.10690E+01  6136   0.614E+00    0.311E+01
DAV:  20    -0.739494810300E+03   -0.91568E+01   -0.19688E+01  5640   0.113E+01    0.584E+01
DAV:  21    -0.741141654792E+03   -0.16468E+01   -0.13355E+01  5272   0.647E+00    0.435E+01
DAV:  22    -0.751399348762E+03   -0.10258E+02   -0.63475E+00  5096   0.535E+00    0.389E+01
DAV:  23    -0.761894189226E+03   -0.10495E+02   -0.57054E+00  5104   0.509E+00    0.515E+01
DAV:  24    -0.768214943738E+03   -0.63208E+01   -0.51266E+00  5224   0.409E+00    0.528E+01
DAV:  25    -0.773937506640E+03   -0.57226E+01   -0.33742E+00  5248   0.452E+00    0.562E+01
DAV:  26    -0.771661663079E+03    0.22758E+01   -0.11936E+00  5092   0.214E+00    0.619E+01
DAV:  27    -0.770597317887E+03    0.10643E+01   -0.47034E-01  5528   0.981E-01    0.629E+01
DAV:  28    -0.770800830428E+03   -0.20351E+00   -0.54469E-01  6164   0.976E-01    0.618E+01
DAV:  29    -0.770029189984E+03    0.77164E+00   -0.13499E+00  5624   0.148E+00    0.634E+01
DAV:  30    -0.770057997358E+03   -0.28807E-01   -0.12725E-01  4516   0.666E-01    0.637E+01
DAV:  31    -0.770883112342E+03   -0.82511E+00   -0.92479E-01  5776   0.234E+00    0.670E+01
DAV:  32    -0.770659114588E+03    0.22400E+00   -0.16069E-01  4040   0.724E-01    0.671E+01
DAV:  33    -0.769741314670E+03    0.91780E+00   -0.40132E-01  5112   0.127E+00    0.678E+01
DAV:  34    -0.771170530907E+03   -0.14292E+01   -0.39648E-01  5192   0.987E-01    0.691E+01
DAV:  35    -0.772211244107E+03   -0.10407E+01   -0.91174E-01  5512   0.157E+00    0.705E+01
DAV:  36    -0.773653448192E+03   -0.14422E+01   -0.67742E-01  5192   0.164E+00    0.762E+01
DAV:  37    -0.774813837848E+03   -0.11604E+01   -0.70458E-01  5488   0.135E+00    0.783E+01
DAV:  38    -0.774580154811E+03    0.23368E+00   -0.11202E-01  4184   0.655E-01    0.785E+01
DAV:  39    -0.775139242960E+03   -0.55909E+00   -0.66724E-01  5504   0.111E+00    0.810E+01
DAV:  40    -0.775122622478E+03    0.16620E-01   -0.64493E-02  3928   0.465E-01    0.809E+01
DAV:  41    -0.775104938774E+03    0.17684E-01   -0.87590E-03  5720   0.151E-01    0.809E+01
DAV:  42    -0.776370475146E+03   -0.12655E+01   -0.16995E+00  5320   0.142E+00    0.859E+01
DAV:  43    -0.775715972530E+03    0.65450E+00   -0.65366E-01  4800   0.128E+00    0.875E+01
DAV:  44    -0.776060057414E+03   -0.34408E+00   -0.16762E-01  4464   0.758E-01    0.878E+01
DAV:  45    -0.775842187894E+03    0.21787E+00   -0.14545E-01  4864   0.520E-01    0.884E+01
DAV:  46    -0.775842891707E+03   -0.70381E-03   -0.35886E-02  3608   0.330E-01    0.884E+01
DAV:  47    -0.775813373785E+03    0.29518E-01   -0.15318E-02  5232   0.169E-01    0.884E+01
DAV:  48    -0.775996022803E+03   -0.18265E+00   -0.94493E-02  4912   0.326E-01    0.883E+01
DAV:  49    -0.776002780669E+03   -0.67579E-02   -0.96685E-02  4600   0.366E-01    0.882E+01
DAV:  50    -0.776051902454E+03   -0.49122E-01   -0.13143E-02  4480   0.202E-01    0.880E+01
DAV:  51    -0.754037409191E+03    0.22014E+02   -0.15059E+02  5240   0.297E+01    0.105E+02
DAV:  52    -0.759931508202E+03   -0.58941E+01   -0.41643E+02  5656   0.192E+01    0.649E+01
DAV:  53    -0.771728653560E+03   -0.11797E+02   -0.47906E+01  5504   0.110E+01    0.699E+01
DAV:  54    -0.774056193105E+03   -0.23275E+01   -0.31088E+01  5712   0.856E+00    0.627E+01
DAV:  55    -0.775082361982E+03   -0.10262E+01   -0.17109E+01  5560   0.616E+00    0.328E+01
DAV:  56    -0.796981901978E+03   -0.21900E+02   -0.73591E+01  5640   0.249E+01    0.112E+02
DAV:  57    -0.789958160621E+03    0.70237E+01   -0.61510E+01  5688   0.200E+01    0.701E+01
DAV:  58    -0.811761306555E+03   -0.21803E+02   -0.29695E+01  5360   0.865E+00    0.902E+01
DAV:  59    -0.823639554030E+03   -0.11878E+02   -0.10276E+01  5280   0.808E+00    0.628E+01
DAV:  60    -0.856069895148E+03   -0.32430E+02   -0.34870E+01  5168   0.119E+01    0.594E+01
DAV:  61    -0.856417693245E+03   -0.34780E+00   -0.23852E+01  5568   0.132E+01    0.518E+01
DAV:  62    -0.875224289467E+03   -0.18807E+02   -0.21314E+01  5176   0.926E+00    0.572E+01
DAV:  63    -0.876254166665E+03   -0.10299E+01   -0.39365E+00  5136   0.318E+00    0.549E+01
DAV:  64    -0.876161145403E+03    0.93021E-01   -0.51860E-01  5920   0.101E+00    0.550E+01
DAV:  65    -0.876358569100E+03   -0.19742E+00   -0.48027E-01  6048   0.608E-01    0.540E+01
DAV:  66    -0.870090945689E+03    0.62676E+01   -0.12128E+01  5536   0.835E+00    0.419E+01
DAV:  67    -0.882084341799E+03   -0.11993E+02   -0.10577E+01  5288   0.741E+00    0.417E+01
DAV:  68    -0.887768231127E+03   -0.56839E+01   -0.35397E+00  5464   0.447E+00    0.429E+01
DAV:  69    -0.893507047665E+03   -0.57388E+01   -0.39802E+00  5328   0.254E+00    0.492E+01
DAV:  70    -0.893714741164E+03   -0.20769E+00   -0.45189E-01  4736   0.152E+00    0.493E+01
DAV:  71    -0.886856157263E+03    0.68586E+01   -0.14248E+01  5696   0.853E+00    0.505E+01
DAV:  72    -0.889205158474E+03   -0.23490E+01   -0.44286E+00  5592   0.607E+00    0.479E+01
DAV:  73    -0.891812293971E+03   -0.26071E+01   -0.27735E+00  5576   0.314E+00    0.490E+01
DAV:  74    -0.891800796746E+03    0.11497E-01   -0.51118E-01  4880   0.867E-01    0.490E+01
DAV:  75    -0.891811056119E+03   -0.10259E-01   -0.30735E-02  6304   0.221E-01    0.490E+01
DAV:  76    -0.887353650628E+03    0.44574E+01   -0.17486E+01  5584   0.734E+00    0.544E+01
DAV:  77    -0.891692916601E+03   -0.43393E+01   -0.10835E+01  5496   0.532E+00    0.497E+01
DAV:  78    -0.894664604701E+03   -0.29717E+01   -0.25479E+00  5464   0.329E+00    0.488E+01
DAV:  79    -0.900960393888E+03   -0.62958E+01   -0.70598E+00  5496   0.544E+00    0.504E+01
DAV:  80    -0.904930151652E+03   -0.39698E+01   -0.56978E+00  5648   0.393E+00    0.517E+01
DAV:  81    -0.890470130337E+03    0.14460E+02   -0.90673E+01  5184   0.199E+01    0.688E+01
DAV:  82    -0.891444320310E+03   -0.97419E+00   -0.27910E+01  5104   0.120E+01    0.532E+01
DAV:  83    -0.887028254572E+03    0.44161E+01   -0.20360E+01  5616   0.756E+00    0.525E+01
DAV:  84    -0.890734295214E+03   -0.37060E+01   -0.72138E+01  5888   0.541E+00    0.143E+02
DAV:  85    -0.894780505047E+03   -0.40462E+01   -0.80250E+01  5688   0.687E+00    0.213E+02
DAV:  86    -0.903305628197E+03   -0.85251E+01   -0.29916E+02  5688   0.250E+01    0.789E+01
DAV:  87    -0.905512338147E+03   -0.22067E+01   -0.12613E+02  5072   0.203E+01    0.386E+01
DAV:  88    -0.919740504513E+03   -0.14228E+02   -0.57029E+01  5624   0.139E+01    0.269E+01
DAV:  89    -0.933636519534E+03   -0.13896E+02   -0.14108E+01  5600   0.626E+00    0.243E+01
DAV:  90    -0.954102901385E+03   -0.20466E+02   -0.12968E+01  5368   0.641E+00    0.234E+01
DAV:  91    -0.971067440975E+03   -0.16965E+02   -0.17491E+01  5528   0.891E+00    0.210E+01
DAV:  92    -0.988978630745E+03   -0.17911E+02   -0.16628E+01  5296   0.722E+00    0.206E+01
DAV:  93    -0.100782606215E+04   -0.18847E+02   -0.14430E+01  5120   0.553E+00    0.242E+01
DAV:  94    -0.101423704354E+04   -0.64110E+01   -0.54223E+00  5968   0.333E+00    0.263E+01
DAV:  95    -0.101584814689E+04   -0.16111E+01   -0.82108E-01  5464   0.147E+00    0.269E+01
DAV:  96    -0.100969329144E+04    0.61549E+01   -0.61992E+00  5616   0.671E+00    0.217E+01
DAV:  97    -0.101724174933E+04   -0.75485E+01   -0.62128E+00  5464   0.521E+00    0.209E+01
DAV:  98    -0.102368589327E+04   -0.64441E+01   -0.35412E+00  5472   0.427E+00    0.183E+01
DAV:  99    -0.103019036604E+04   -0.65045E+01   -0.41351E+00  5344   0.348E+00    0.167E+01
DAV: 100    -0.104017290159E+04   -0.99825E+01   -0.76688E+00  5208   0.365E+00
   1 F= -.10399888E+04 E0= -.10399185E+04  d E =-.103999E+04  mag=    33.4716
       N       E                     dE             d eps       ncg     rms          rms(c)
DAV:   1    -0.104598397802E+04   -0.15794E+02   -0.68602E+00  5704   0.639E+00    0.196E+01
DAV:   2    -0.107854096637E+04   -0.32557E+02   -0.11120E+02  5672   0.415E+01    0.881E+01
DAV:   3    -0.106576441227E+04    0.12777E+02   -0.18972E+02  4952   0.421E+01    0.363E+01
DAV:   4    -0.106410712369E+04    0.16573E+01   -0.79320E+01  5432   0.228E+01    0.230E+01
DAV:   5    -0.106469000011E+04   -0.58288E+00   -0.24047E+01  5740   0.967E+00    0.217E+01
DAV:   6    -0.106457701945E+04    0.11298E+00   -0.93493E+00  5472   0.804E+00    0.168E+01
DAV:   7    -0.106522520765E+04   -0.64819E+00   -0.48616E+00  5416   0.562E+00    0.162E+01
DAV:   8    -0.106766490590E+04   -0.24397E+01   -0.15023E+01  5376   0.777E+00    0.241E+01
DAV:   9    -0.107300313164E+04   -0.53382E+01   -0.12416E+01  5728   0.695E+00    0.628E+01
DAV:  10    -0.107176972168E+04    0.12334E+01   -0.22894E+00  5888   0.217E+00    0.525E+01
DAV:  11    -0.107271920075E+04   -0.94948E+00   -0.53323E-01  5936   0.126E+00    0.575E+01
DAV:  12    -0.107282146167E+04   -0.10226E+00   -0.28905E+00  5936   0.210E+00    0.475E+01
DAV:  13    -0.107369964521E+04   -0.87818E+00   -0.22531E+00  5680   0.264E+00    0.432E+01
DAV:  14    -0.107379753076E+04   -0.97886E-01   -0.81820E-01  5872   0.171E+00    0.395E+01
DAV:  15    -0.107367419631E+04    0.12333E+00   -0.36070E-01  5520   0.154E+00    0.380E+01
DAV:  16    -0.107342711077E+04    0.24709E+00   -0.16098E-01  5560   0.874E-01    0.367E+01
DAV:  17    -0.107347716674E+04   -0.50056E-01   -0.62311E-02  4832   0.368E-01    0.372E+01
DAV:  18    -0.107357082536E+04   -0.93659E-01   -0.98302E-02  6200   0.922E-01    0.375E+01
DAV:  19    -0.107378153605E+04   -0.21071E+00   -0.14177E-01  6088   0.982E-01    0.377E+01
DAV:  20    -0.107384479056E+04   -0.63255E-01   -0.30794E-02  5000   0.303E-01    0.376E+01
DAV:  21    -0.107384995850E+04   -0.51679E-02   -0.66167E-03  4840   0.198E-01    0.377E+01
DAV:  22    -0.107387022368E+04   -0.20265E-01   -0.15469E-02  5480   0.263E-01    0.377E+01
DAV:  23    -0.107386969312E+04    0.53057E-03   -0.25797E-03  4304   0.802E-02    0.377E+01
DAV:  24    -0.107405329645E+04   -0.18360E+00   -0.53621E-02  6152   0.702E-01    0.377E+01
DAV:  25    -0.107373066627E+04    0.32263E+00   -0.68076E-01  5712   0.101E+00    0.379E+01
DAV:  26    -0.107372337275E+04    0.72935E-02   -0.11762E-01  5256   0.345E-01    0.382E+01
DAV:  27    -0.107351476452E+04    0.20861E+00   -0.36505E-02  5224   0.344E-01    0.385E+01
DAV:  28    -0.107352475437E+04   -0.99899E-02   -0.30527E-01  5400   0.273E-01    0.380E+01
DAV:  29    -0.107400021022E+04   -0.47546E+00   -0.82805E-01  5792   0.103E+00    0.361E+01
DAV:  30    -0.107385485421E+04    0.14536E+00   -0.23161E-01  5928   0.125E+00    0.353E+01
DAV:  31    -0.107358652304E+04    0.26833E+00   -0.18075E-01  5808   0.829E-01    0.343E+01
DAV:  32    -0.107340043308E+04    0.18609E+00   -0.10927E-01  5344   0.474E-01    0.343E+01
DAV:  33    -0.107346915374E+04   -0.68721E-01   -0.73348E-01  5656   0.103E+00    0.335E+01
DAV:  34    -0.107348899551E+04   -0.19842E-01   -0.17377E+00  5808   0.151E+00    0.333E+01
DAV:  35    -0.107358406429E+04   -0.95069E-01   -0.23782E-01  5688   0.575E-01    0.333E+01
DAV:  36    -0.107351119404E+04    0.72870E-01   -0.30452E-02  5456   0.268E-01    0.333E+01
DAV:  37    -0.107343570021E+04    0.75494E-01   -0.12564E-01  6152   0.416E-01    0.332E+01
DAV:  38    -0.107347456929E+04   -0.38869E-01   -0.11975E-01  5928   0.447E-01    0.332E+01
DAV:  39    -0.107339700703E+04    0.77562E-01   -0.14281E-02  5192   0.199E-01    0.331E+01
DAV:  40    -0.107334808882E+04    0.48918E-01   -0.66170E-02  6328   0.352E-01    0.331E+01
DAV:  41    -0.107294191120E+04    0.40618E+00   -0.74815E-01  5872   0.102E+00    0.327E+01
DAV:  42    -0.107105835901E+04    0.18836E+01   -0.63396E+00  5976   0.366E+00    0.268E+01
DAV:  43    -0.107130890851E+04   -0.25055E+00   -0.40775E+00  5920   0.295E+00    0.208E+01
DAV:  44    -0.107067799354E+04    0.63091E+00   -0.10110E+01  5592   0.305E+00    0.170E+01
DAV:  45    -0.106847494225E+04    0.22031E+01   -0.66741E+00  5456   0.443E+00    0.124E+01
DAV:  46    -0.106915349603E+04   -0.67855E+00   -0.13031E+00  5616   0.141E+00    0.124E+01
DAV:  47    -0.107031382983E+04   -0.11603E+01   -0.18549E+00  5816   0.294E+00    0.133E+01
DAV:  48    -0.107079112124E+04   -0.47729E+00   -0.20056E+00  5848   0.277E+00    0.133E+01
DAV:  49    -0.107060293464E+04    0.18819E+00   -0.11828E+00  5656   0.217E+00    0.128E+01
DAV:  50    -0.107094913482E+04   -0.34620E+00   -0.12405E+00  5496   0.170E+00    0.127E+01
DAV:  51    -0.107140727524E+04   -0.45814E+00   -0.13522E+00  5572   0.176E+00    0.133E+01
DAV:  52    -0.106790171134E+04    0.35056E+01   -0.11312E+01  5464   0.471E+00    0.190E+01
DAV:  53    -0.106713634766E+04    0.76536E+00   -0.23346E+00  5192   0.284E+00    0.187E+01
DAV:  54    -0.106486822324E+04    0.22681E+01   -0.10628E+00  5464   0.202E+00    0.193E+01
DAV:  55    -0.106362065406E+04    0.12476E+01   -0.67811E-01  5352   0.114E+00    0.193E+01
DAV:  56    -0.106392110865E+04   -0.30045E+00   -0.99833E-02  5016   0.502E-01    0.192E+01
DAV:  57    -0.106780229049E+04   -0.38812E+01   -0.10629E+01  5568   0.567E+00    0.185E+01
DAV:  58    -0.106759699610E+04    0.20529E+00   -0.46397E+00  5160   0.256E+00    0.187E+01
DAV:  59    -0.106719756771E+04    0.39943E+00   -0.11569E+00  5432   0.136E+00    0.221E+01
DAV:  60    -0.106669422621E+04    0.50334E+00   -0.24032E-01  5024   0.748E-01    0.250E+01
DAV:  61    -0.106645834524E+04    0.23588E+00   -0.15461E-01  5464   0.643E-01    0.250E+01
DAV:  62    -0.106911691134E+04   -0.26586E+01   -0.16517E+01  5600   0.629E+00    0.139E+01
DAV:  63    -0.106778039859E+04    0.13365E+01   -0.58371E+00  5188   0.436E+00    0.128E+01
DAV:  64    -0.106802653735E+04   -0.24614E+00   -0.21010E+00  5328   0.218E+00    0.123E+01
DAV:  65    -0.106700386047E+04    0.10227E+01   -0.19166E+00  5284   0.213E+00    0.120E+01
DAV:  66    -0.106485686810E+04    0.21470E+01   -0.16621E+00  5336   0.198E+00    0.121E+01
DAV:  67    -0.106754303380E+04   -0.26862E+01   -0.19908E+00  5400   0.288E+00    0.122E+01
DAV:  68    -0.106854494256E+04   -0.10019E+01   -0.10641E+00  5520   0.212E+00    0.120E+01
DAV:  69    -0.106824497752E+04    0.29997E+00   -0.17760E+00  5528   0.194E+00    0.118E+01
DAV:  70    -0.106813123049E+04    0.11375E+00   -0.90903E-01  5248   0.149E+00    0.113E+01
DAV:  71    -0.106852859268E+04   -0.39736E+00   -0.17143E+00  5616   0.167E+00    0.111E+01
DAV:  72    -0.106922130379E+04   -0.69271E+00   -0.38878E+00  5648   0.309E+00    0.106E+01
DAV:  73    -0.106842340551E+04    0.79790E+00   -0.14939E+00  5476   0.162E+00    0.105E+01
DAV:  74    -0.106634400334E+04    0.20794E+01   -0.25620E+00  5464   0.172E+00    0.112E+01
DAV:  75    -0.106522143155E+04    0.11226E+01   -0.81428E-01  5384   0.109E+00    0.114E+01
DAV:  76    -0.106438082886E+04    0.84060E+00   -0.22110E-01  5448   0.608E-01    0.116E+01
DAV:  77    -0.106986980889E+04   -0.54890E+01   -0.10570E+01  5792   0.741E+00    0.336E+01
DAV:  78    -0.106994526742E+04   -0.75459E-01   -0.19621E+01  5648   0.545E+00    0.666E+00
DAV:  79    -0.107192431986E+04   -0.19791E+01   -0.41671E+00  5368   0.223E+00    0.655E+00
DAV:  80    -0.107263495289E+04   -0.71063E+00   -0.48511E-01  5760   0.974E-01    0.629E+00
DAV:  81    -0.107311421593E+04   -0.47926E+00   -0.59889E-01  5872   0.110E+00    0.568E+00
DAV:  82    -0.107365650622E+04   -0.54229E+00   -0.11525E+00  5440   0.132E+00    0.496E+00
DAV:  83    -0.107400896175E+04   -0.35246E+00   -0.33717E-01  5704   0.114E+00    0.396E+00
DAV:  84    -0.107433732778E+04   -0.32837E+00   -0.10578E+00  6000   0.115E+00    0.824E+00
DAV:  85    -0.107440588217E+04   -0.68554E-01   -0.18023E-01  5224   0.463E-01    0.823E+00
DAV:  86    -0.107435242310E+04    0.53459E-01   -0.60216E-02  6088   0.210E-01    0.728E+00
DAV:  87    -0.107468829887E+04   -0.33588E+00   -0.35950E-01  6064   0.734E-01    0.812E+00
DAV:  88    -0.107474824799E+04   -0.59949E-01   -0.92590E-02  5592   0.309E-01    0.792E+00
DAV:  89    -0.107473177307E+04    0.16475E-01   -0.43385E-02  6040   0.209E-01    0.796E+00
DAV:  90    -0.107475936007E+04   -0.27587E-01   -0.41557E-02  6080   0.322E-01    0.779E+00
DAV:  91    -0.107478860107E+04   -0.29241E-01   -0.66369E-02  5792   0.212E-01    0.765E+00
DAV:  92    -0.107473550845E+04    0.53093E-01   -0.25139E-01  5968   0.744E-01    0.771E+00
DAV:  93    -0.107473788473E+04   -0.23763E-02   -0.48072E-02  5792   0.473E-01    0.740E+00
DAV:  94    -0.107477395528E+04   -0.36071E-01   -0.47559E-02  5768   0.263E-01    0.726E+00
DAV:  95    -0.107483477016E+04   -0.60815E-01   -0.10540E-01  5672   0.313E-01    0.700E+00
DAV:  96    -0.107492462228E+04   -0.89852E-01   -0.41039E-01  5624   0.395E-01    0.679E+00
DAV:  97    -0.107498905853E+04   -0.64436E-01   -0.19246E-01  5664   0.405E-01    0.681E+00
DAV:  98    -0.107495852699E+04    0.30532E-01   -0.16192E-02  5360   0.205E-01    0.683E+00
DAV:  99    -0.107495593896E+04    0.25880E-02   -0.14056E-03  4104   0.556E-02    0.684E+00
DAV: 100    -0.107501943490E+04   -0.63496E-01   -0.45792E-02  5808   0.203E-01
   2 F= -.10749846E+04 E0= -.10749427E+04  d E =-.349958E+02  mag=    18.5514
       N       E                     dE             d eps       ncg     rms          rms(c)
DAV:   1    -0.107514763500E+04   -0.19170E+00   -0.48735E-01  5560   0.405E-01    0.645E+00
DAV:   2    -0.107510463979E+04    0.42995E-01   -0.54329E+00  5448   0.600E+00    0.805E+00
DAV:   3    -0.107660138061E+04   -0.14967E+01   -0.62066E+00  5256   0.767E+00    0.266E+01
DAV:   4    -0.107560037143E+04    0.10010E+01   -0.55750E+00  5936   0.530E+00    0.124E+01
DAV:   5    -0.107538301347E+04    0.21736E+00   -0.27089E+00  5760   0.388E+00    0.622E+00
DAV:   6    -0.107541506619E+04   -0.32053E-01   -0.94245E-01  5672   0.199E+00    0.477E+00
DAV:   7    -0.107543831874E+04   -0.23253E-01   -0.24300E-01  5512   0.132E+00    0.292E+00
DAV:   8    -0.107549879249E+04   -0.60474E-01   -0.14335E-01  5752   0.899E-01    0.217E+00
DAV:   9    -0.107553208130E+04   -0.33289E-01   -0.94900E-02  5728   0.711E-01    0.173E+00
DAV:  10    -0.107558481478E+04   -0.52733E-01   -0.12009E-01  5856   0.573E-01    0.166E+00
DAV:  11    -0.107560765709E+04   -0.22842E-01   -0.58734E-02  5784   0.539E-01    0.139E+00
DAV:  12    -0.107565572652E+04   -0.48069E-01   -0.11442E-01  5784   0.506E-01    0.136E+00
DAV:  13    -0.107568175625E+04   -0.26030E-01   -0.54153E-02  5752   0.435E-01    0.108E+00
DAV:  14    -0.107575110055E+04   -0.69344E-01   -0.22767E-01  5536   0.526E-01    0.115E+00
DAV:  15    -0.107577612447E+04   -0.25024E-01   -0.65478E-02  5640   0.471E-01    0.104E+00
DAV:  16    -0.107584157214E+04   -0.65448E-01   -0.30955E-01  5496   0.590E-01    0.974E-01
DAV:  17    -0.107586556443E+04   -0.23992E-01   -0.85654E-02  5736   0.546E-01    0.107E+00
DAV:  18    -0.107590284927E+04   -0.37285E-01   -0.19812E-01  5600   0.521E-01    0.493E-01
DAV:  19    -0.107593166419E+04   -0.28815E-01   -0.14892E-01  5496   0.400E-01    0.651E-01
DAV:  20    -0.107593794167E+04   -0.62775E-02   -0.25104E-02  5432   0.388E-01    0.584E-01
DAV:  21    -0.107594914385E+04   -0.11202E-01   -0.38052E-02  5680   0.268E-01    0.333E-01
DAV:  22    -0.107595585147E+04   -0.67076E-02   -0.20132E-02  5320   0.155E-01    0.288E-01
DAV:  23    -0.107596137833E+04   -0.55269E-02   -0.22794E-02  5448   0.156E-01    0.218E-01
DAV:  24    -0.107596575255E+04   -0.43742E-02   -0.20968E-02  5192   0.134E-01    0.158E-01
DAV:  25    -0.107596755683E+04   -0.18043E-02   -0.94160E-03  5288   0.118E-01    0.952E-02
DAV:  26    -0.107596915162E+04   -0.15948E-02   -0.10322E-02  4904   0.880E-02    0.753E-02
DAV:  27    -0.107597004937E+04   -0.89774E-03   -0.42809E-03  4128   0.607E-02    0.667E-02
DAV:  28    -0.107597080673E+04   -0.75737E-03   -0.33660E-03  4048   0.514E-02    0.605E-02
DAV:  29    -0.107597169918E+04   -0.89245E-03   -0.45218E-03  4032   0.586E-02    0.600E-02
DAV:  30    -0.107597242367E+04   -0.72449E-03   -0.32646E-03  3600   0.480E-02    0.575E-02
DAV:  31    -0.107597339143E+04   -0.96776E-03   -0.52456E-03  3656   0.594E-02    0.581E-02
DAV:  32    -0.107597431832E+04   -0.92688E-03   -0.51347E-03  3464   0.551E-02    0.563E-02
DAV:  33    -0.107597492096E+04   -0.60265E-03   -0.23434E-03  2944   0.403E-02    0.558E-02
DAV:  34    -0.107597583319E+04   -0.91223E-03   -0.47635E-03  3208   0.513E-02    0.548E-02
DAV:  35    -0.107597751716E+04   -0.16840E-02   -0.15591E-02  4000   0.882E-02    0.561E-02
DAV:  36    -0.107597982357E+04   -0.23064E-02   -0.31220E-02  4232   0.122E-01    0.571E-02
DAV:  37    -0.107598236210E+04   -0.25385E-02   -0.40464E-02  4400   0.138E-01    0.581E-02
DAV:  38    -0.107598302086E+04   -0.65876E-03   -0.41851E-03  3104   0.522E-02    0.556E-02
DAV:  39    -0.107598177137E+04    0.12495E-02   -0.10126E-02  3216   0.747E-02    0.557E-02
DAV:  40    -0.107597938379E+04    0.23876E-02   -0.35660E-02  4152   0.129E-01    0.585E-02
DAV:  41    -0.107597764374E+04    0.17400E-02   -0.18868E-02  3744   0.944E-02    0.585E-02
DAV:  42    -0.107598265823E+04   -0.50145E-02   -0.15373E-01  4552   0.271E-01    0.629E-02
DAV:  43    -0.107599081650E+04   -0.81583E-02   -0.80961E-01  4904   0.610E-01    0.109E-01
DAV:  44    -0.107599436533E+04   -0.35488E-02   -0.27100E-02  4048   0.141E-01    0.879E-02
DAV:  45    -0.107599532367E+04   -0.95834E-03   -0.91425E-03  3552   0.739E-02    0.909E-02
DAV:  46    -0.107599649210E+04   -0.11684E-02   -0.11839E-02  3688   0.805E-02    0.920E-02
DAV:  47    -0.107599646858E+04    0.23526E-04   -0.78383E-03  3640   0.851E-02    0.739E-02
DAV:  48    -0.107599750674E+04   -0.10382E-02   -0.69061E-03  3216   0.686E-02    0.537E-02
DAV:  49    -0.107599942855E+04   -0.19218E-02   -0.23087E-02  4304   0.107E-01    0.544E-02
DAV:  50    -0.107599957602E+04   -0.14747E-03   -0.70578E-04  2488   0.299E-02    0.526E-02
DAV:  51    -0.107599623363E+04    0.33424E-02   -0.84547E-02  4440   0.202E-01    0.652E-02
DAV:  52    -0.107599384596E+04    0.23877E-02   -0.41287E-02  4256   0.141E-01    0.695E-02
DAV:  53    -0.107599387354E+04   -0.27583E-04   -0.55912E-04  2520   0.349E-02
   3 F= -.10759243E+04 E0= -.10758853E+04  d E =-.939687E+00  mag=    14.0115
       N       E                     dE             d eps       ncg     rms          rms(c)
DAV:   1    -0.107599431283E+04   -0.46687E-03   -0.63968E-03  2800   0.424E-02    0.659E-02
DAV:   2    -0.107599506839E+04   -0.75556E-03   -0.35486E-03  3608   0.104E-01    0.296E-01
DAV:   3    -0.107599493560E+04    0.13278E-03   -0.74859E-04  3000   0.839E-02    0.745E-02
DAV:   4    -0.107599505025E+04   -0.11464E-03   -0.32158E-04  2232   0.441E-02    0.912E-02
DAV:   5    -0.107599524649E+04   -0.19625E-03   -0.43929E-04  2416   0.369E-02    0.635E-02
DAV:   6    -0.107599533048E+04   -0.83987E-04   -0.10811E-04  1976   0.239E-02
   4 F= -.10759257E+04 E0= -.10758866E+04  d E =-.136914E-02  mag=    14.0090
       N       E                     dE             d eps       ncg     rms          rms(c)
DAV:   1    -0.107599557507E+04   -0.32858E-03   -0.34478E-03  2512   0.313E-02    0.632E-02
DAV:   2    -0.107599637529E+04   -0.80023E-03   -0.26774E-03  3192   0.106E-01    0.360E-01
DAV:   3    -0.107599616708E+04    0.20822E-03   -0.74158E-04  2712   0.889E-02    0.674E-02
DAV:   4    -0.107599618586E+04   -0.18785E-04   -0.86637E-05  1960   0.227E-02
   5 F= -.10759265E+04 E0= -.10758875E+04  d E =-.822195E-03  mag=    14.0076
