 vasp.5.4.4.18Apr17-6-g9f103f2a35 (build Dec 31 2018 11:41:54) complex          
  
 executed on             LinuxIFC date 2020.05.12  14:59:52
 running on   16 total cores
 distrk:  each k-point on   16 cores,    1 groups
 distr:  one band on NCORES_PER_BAND=   4 cores,    4 groups


--------------------------------------------------------------------------------------------------------


 INCAR:
 POTCAR:    PAW_PBE Ce 23Dec2003                  
 POTCAR:   PAW_PBE O 08Apr2002                    
 POTCAR:   PAW_PBE Ni 06Sep2000                   
 POTCAR:   PAW_PBE C 08Apr2002                    
 POTCAR:   PAW_PBE H 15Jun2001                    

 ----------------------------------------------------------------------------- 
|                                                                             |
|  ADVICE TO THIS USER RUNNING 'VASP/VAMP'   (HEAR YOUR MASTER'S VOICE ...):  |
|                                                                             |
|      You have switched on vdW-DFT.                                          |
|      This routine was written and supplied by Jiri Klimes.                  |
|      We recommed that you carefully read and cite the following             |
|      publication                                                            |
|      J. Klimes, D.R. Bowler, A. Michelides                                  |
|        J. Phys.: Cond Matt. 22 022201 (2010)                                |
|      J. Klimes, D.R. Bowler, A. Michelides                                  |
|        Phys. Rev. B. 83, 195131 (2011)                                      |
|      and references therein.                                                |
|                                                                             |
 ----------------------------------------------------------------------------- 

 POTCAR:    PAW_PBE Ce 23Dec2003                  
   VRHFIN =Ce : [core=Kr 4d10]                                                  
   LEXCH  = PE                                                                  
   EATOM  =  1063.0861 eV,   78.1346 Ry                                         
                                                                                
   TITEL  = PAW_PBE Ce 23Dec2003                                                
   LULTRA =        F    use ultrasoft PP ?                                      
   IUNSCR =        1    unscreen: 0-lin 1-nonlin 2-no                           
   RPACOR =    1.800    partial core radius                                     
   POMASS =  140.115; ZVAL   =   12.000    mass and valenz                      
   RCORE  =    2.700    outmost cutoff radius                                   
   RWIGS  =    2.500; RWIGS  =    1.323    wigner-seitz radius (au A)           
   ENMAX  =  273.042; ENMIN  =  204.781 eV                                      
   RCLOC  =    1.810    cutoff for local pot                                    
   LCOR   =        T    correct aug charges                                     
   LPAW   =        T    paw PP                                                  
   EAUG   =  580.196                                                            
   DEXC   =     .000                                                            
   RMAX   =    2.790    core radius for proj-oper                               
   RAUG   =    1.300    factor for augmentation sphere                          
   RDEP   =    2.810    radius for radial grids                                 
   QCUT   =   -4.480; QGAM   =    8.959    optimization parameters              
                                                                                
   Description                                                                  
     l     E      TYP  RCUT    TYP  RCUT                                        
     0   .000     23  1.500                                                     
     0   .000     23  2.300                                                     
     0   .000     23  1.500                                                     
     0   .000     23  2.300                                                     
     1   .000     23  2.000                                                     
     1  3.000     23  2.300                                                     
     2   .000     23  2.500                                                     
     2  1.000     23  2.500                                                     
     3   .000     23  2.700                                                     
     3  -.430     23  2.700                                                     
  local pseudopotential read in
  partial core-charges read in
  atomic valenz-charges read in
  non local Contribution for L=           0  read in
    real space projection operators read in
  non local Contribution for L=           0  read in
    real space projection operators read in
  non local Contribution for L=           1  read in
    real space projection operators read in
  non local Contribution for L=           1  read in
    real space projection operators read in
  non local Contribution for L=           2  read in
    real space projection operators read in
  non local Contribution for L=           2  read in
    real space projection operators read in
  non local Contribution for L=           3  read in
    real space projection operators read in
  non local Contribution for L=           3  read in
    real space projection operators read in
    PAW grid and wavefunctions read in
 
   number of l-projection  operators is LMAX  =           8
   number of lm-projection operators is LMMAX =          32
 
 POTCAR:   PAW_PBE O 08Apr2002                    
   VRHFIN =O: s2p4                                                              
   LEXCH  = PE                                                                  
   EATOM  =   432.3788 eV,   31.7789 Ry                                         
                                                                                
   TITEL  = PAW_PBE O 08Apr2002                                                 
   LULTRA =        F    use ultrasoft PP ?                                      
   IUNSCR =        0    unscreen: 0-lin 1-nonlin 2-no                           
   RPACOR =     .000    partial core radius                                     
   POMASS =   16.000; ZVAL   =    6.000    mass and valenz                      
   RCORE  =    1.520    outmost cutoff radius                                   
   RWIGS  =    1.550; RWIGS  =     .820    wigner-seitz radius (au A)           
   ENMAX  =  400.000; ENMIN  =  300.000 eV                                      
   ICORE  =        2    local potential                                         
   LCOR   =        T    correct aug charges                                     
   LPAW   =        T    paw PP                                                  
   EAUG   =  605.392                                                            
   DEXC   =     .000                                                            
   RMAX   =    2.264    core radius for proj-oper                               
   RAUG   =    1.300    factor for augmentation sphere                          
   RDEP   =    1.550    radius for radial grids                                 
   QCUT   =   -5.520; QGAM   =   11.041    optimization parameters              
                                                                                
   Description                                                                  
     l     E      TYP  RCUT    TYP  RCUT                                        
     0   .000     23  1.200                                                     
     0  -.700     23  1.200                                                     
     1   .000     23  1.520                                                     
     1   .600     23  1.520                                                     
     2   .000      7  1.500                                                     
  local pseudopotential read in
  atomic valenz-charges read in
  non local Contribution for L=           0  read in
    real space projection operators read in
  non local Contribution for L=           0  read in
    real space projection operators read in
  non local Contribution for L=           1  read in
    real space projection operators read in
  non local Contribution for L=           1  read in
    real space projection operators read in
    PAW grid and wavefunctions read in
 
   number of l-projection  operators is LMAX  =           4
   number of lm-projection operators is LMMAX =           8
 
 POTCAR:   PAW_PBE Ni 06Sep2000                   
   VRHFIN =Ni:                                                                  
   LEXCH  = PE                                                                  
   EATOM  =  1077.9025 eV,   79.2236 Ry                                         
                                                                                
   TITEL  = PAW_PBE Ni 06Sep2000                                                
   LULTRA =        F    use ultrasoft PP ?                                      
   IUNSCR =        1    unscreen: 0-lin 1-nonlin 2-no                           
   RPACOR =    2.000    partial core radius                                     
   POMASS =   58.690; ZVAL   =   10.000    mass and valenz                      
   RCORE  =    2.300    outmost cutoff radius                                   
   RWIGS  =    2.430; RWIGS  =    1.286    wigner-seitz radius (au A)           
   ENMAX  =  269.533; ENMIN  =  202.150 eV                                      
   RCLOC  =    1.681    cutoff for local pot                                    
   LCOR   =        T    correct aug charges                                     
   LPAW   =        T    paw PP                                                  
   EAUG   =  544.565                                                            
   DEXC   =    -.009                                                            
   RMAX   =    2.808    core radius for proj-oper                               
   RAUG   =    1.300    factor for augmentation sphere                          
   RDEP   =    2.390    radius for radial grids                                 
   QCUT   =   -4.451; QGAM   =    8.902    optimization parameters              
                                                                                
   Description                                                                  
     l     E      TYP  RCUT    TYP  RCUT                                        
     2   .000     23  2.300                                                     
     2   .000     23  2.300                                                     
     0   .000     23  2.300                                                     
     0   .000     23  2.300                                                     
     1  -.200     23  2.300                                                     
     1   .000     23  2.300                                                     
     3   .000      7   .000                                                     
  local pseudopotential read in
  partial core-charges read in
  atomic valenz-charges read in
  non local Contribution for L=           2  read in
    real space projection operators read in
  non local Contribution for L=           2  read in
    real space projection operators read in
  non local Contribution for L=           0  read in
    real space projection operators read in
  non local Contribution for L=           0  read in
    real space projection operators read in
  non local Contribution for L=           1  read in
    real space projection operators read in
  non local Contribution for L=           1  read in
    real space projection operators read in
    PAW grid and wavefunctions read in
 
   number of l-projection  operators is LMAX  =           6
   number of lm-projection operators is LMMAX =          18
 
 POTCAR:   PAW_PBE C 08Apr2002                    
   VRHFIN =C: s2p2                                                              
   LEXCH  = PE                                                                  
   EATOM  =   147.1560 eV,   10.8157 Ry                                         
                                                                                
   TITEL  = PAW_PBE C 08Apr2002                                                 
   LULTRA =        F    use ultrasoft PP ?                                      
   IUNSCR =        0    unscreen: 0-lin 1-nonlin 2-no                           
   RPACOR =     .000    partial core radius                                     
   POMASS =   12.011; ZVAL   =    4.000    mass and valenz                      
   RCORE  =    1.500    outmost cutoff radius                                   
   RWIGS  =    1.630; RWIGS  =     .863    wigner-seitz radius (au A)           
   ENMAX  =  400.000; ENMIN  =  300.000 eV                                      
   ICORE  =        2    local potential                                         
   LCOR   =        T    correct aug charges                                     
   LPAW   =        T    paw PP                                                  
   EAUG   =  644.873                                                            
   DEXC   =     .000                                                            
   RMAX   =    2.266    core radius for proj-oper                               
   RAUG   =    1.300    factor for augmentation sphere                          
   RDEP   =    1.501    radius for radial grids                                 
   RDEPT  =    1.300    core radius for aug-charge                              
   QCUT   =   -5.516; QGAM   =   11.032    optimization parameters              
                                                                                
   Description                                                                  
     l     E      TYP  RCUT    TYP  RCUT                                        
     0   .000     23  1.200                                                     
     0   .000     23  1.200                                                     
     1   .000     23  1.500                                                     
     1  2.500     23  1.500                                                     
     2   .000      7  1.500                                                     
  local pseudopotential read in
  atomic valenz-charges read in
  non local Contribution for L=           0  read in
    real space projection operators read in
  non local Contribution for L=           0  read in
    real space projection operators read in
  non local Contribution for L=           1  read in
    real space projection operators read in
  non local Contribution for L=           1  read in
    real space projection operators read in
    PAW grid and wavefunctions read in
 
   number of l-projection  operators is LMAX  =           4
   number of lm-projection operators is LMMAX =           8
 
 POTCAR:   PAW_PBE H 15Jun2001                    
   VRHFIN =H: ultrasoft test                                                    
   LEXCH  = PE                                                                  
   EATOM  =    12.4884 eV,     .9179 Ry                                         
                                                                                
   TITEL  = PAW_PBE H 15Jun2001                                                 
   LULTRA =        F    use ultrasoft PP ?                                      
   IUNSCR =        0    unscreen: 0-lin 1-nonlin 2-no                           
   RPACOR =     .000    partial core radius                                     
   POMASS =    1.000; ZVAL   =    1.000    mass and valenz                      
   RCORE  =    1.100    outmost cutoff radius                                   
   RWIGS  =     .700; RWIGS  =     .370    wigner-seitz radius (au A)           
   ENMAX  =  250.000; ENMIN  =  200.000 eV                                      
   RCLOC  =     .701    cutoff for local pot                                    
   LCOR   =        T    correct aug charges                                     
   LPAW   =        T    paw PP                                                  
   EAUG   =  400.000                                                            
   RMAX   =    2.174    core radius for proj-oper                               
   RAUG   =    1.200    factor for augmentation sphere                          
   RDEP   =    1.112    radius for radial grids                                 
   QCUT   =   -5.749; QGAM   =   11.498    optimization parameters              
                                                                                
   Description                                                                  
     l     E      TYP  RCUT    TYP  RCUT                                        
     0   .000     23  1.100                                                     
     0   .500     23  1.100                                                     
     1  -.300     23  1.100                                                     
  local pseudopotential read in
  atomic valenz-charges read in
  non local Contribution for L=           0  read in
    real space projection operators read in
  non local Contribution for L=           0  read in
    real space projection operators read in
  non local Contribution for L=           1  read in
    real space projection operators read in
    PAW grid and wavefunctions read in
 
   number of l-projection  operators is LMAX  =           3
   number of lm-projection operators is LMMAX =           5
 
 Optimization of the real space projectors (new method)

 maximal supplied QI-value         = 13.98
 optimisation between [QCUT,QGAM] = [ 11.33, 22.79] = [ 35.93,145.49] Ry 
 Optimized for a Real-space Cutoff    1.56 Angstroem

   l    n(q)    QCUT    max X(q) W(low)/X(q) W(high)/X(q)  e(spline) 
   0     11    11.327     5.428    0.42E-05    0.17E-05    0.56E-07
   0     11    11.327     9.711    0.21E-04    0.15E-04    0.24E-06
   1     10    11.327     2.967    0.14E-04    0.58E-05    0.59E-07
   1     10    11.327     4.227    0.16E-04    0.69E-05    0.16E-06
   2     10    11.327     3.946    0.59E-04    0.12E-03    0.16E-06
   2     10    11.327     8.796    0.23E-03    0.47E-03    0.56E-06
   3      9    11.327     6.110    0.50E-04    0.20E-04    0.99E-07
   3      9    11.327    17.360    0.14E-03    0.24E-03    0.44E-06
 Optimization of the real space projectors (new method)

 maximal supplied QI-value         = 24.76
 optimisation between [QCUT,QGAM] = [ 11.39, 22.77] = [ 36.31,145.25] Ry 
 Optimized for a Real-space Cutoff    1.03 Angstroem

   l    n(q)    QCUT    max X(q) W(low)/X(q) W(high)/X(q)  e(spline) 
   0      7    11.387     4.192    0.55E-04    0.17E-03    0.22E-07
   0      7    11.387     8.473    0.18E-03    0.93E-03    0.17E-06
   1      6    11.387     2.474    0.16E-03    0.14E-03    0.20E-07
   1      6    11.387     3.912    0.19E-03    0.47E-03    0.17E-06
 Optimization of the real space projectors (new method)

 maximal supplied QI-value         = 16.25
 optimisation between [QCUT,QGAM] = [ 11.38, 22.75] = [ 36.24,144.96] Ry 
 Optimized for a Real-space Cutoff    1.52 Angstroem

   l    n(q)    QCUT    max X(q) W(low)/X(q) W(high)/X(q)  e(spline) 
   2      9    11.376     4.811    0.20E-04    0.13E-04    0.50E-07
   2      9    11.376    15.146    0.19E-03    0.89E-04    0.22E-06
   0     10    11.376    14.357    0.19E-04    0.21E-05    0.12E-07
   0     10    11.376    43.282    0.54E-04    0.36E-04    0.24E-06
   1     10    11.376     5.514    0.11E-04    0.58E-05    0.24E-07
   1     10    11.376     7.697    0.48E-04    0.48E-04    0.11E-06
 Optimization of the real space projectors (new method)

 maximal supplied QI-value         = 25.13
 optimisation between [QCUT,QGAM] = [ 11.31, 22.87] = [ 35.82,146.48] Ry 
 Optimized for a Real-space Cutoff    1.03 Angstroem

   l    n(q)    QCUT    max X(q) W(low)/X(q) W(high)/X(q)  e(spline) 
   0      7    11.310     5.582    0.48E-04    0.13E-03    0.16E-07
   0      7    11.310    69.432    0.20E-03    0.89E-03    0.19E-06
   1      6    11.310     2.780    0.41E-04    0.48E-04    0.42E-07
   1      6    11.310     4.549    0.12E-03    0.21E-03    0.99E-07
 Optimization of the real space projectors (new method)

 maximal supplied QI-value         = 34.20
 optimisation between [QCUT,QGAM] = [ 11.29, 22.57] = [ 35.68,142.71] Ry 
 Optimized for a Real-space Cutoff    1.20 Angstroem

   l    n(q)    QCUT    max X(q) W(low)/X(q) W(high)/X(q)  e(spline) 
   0      8    11.287     4.436    0.26E-04    0.52E-04    0.39E-07
   0      8    11.287    16.131    0.21E-03    0.48E-03    0.18E-06
   1      8    11.287     4.654    0.21E-03    0.11E-04    0.26E-06

 ----------------------------------------------------------------------------- 
|                                                                             |
|  ADVICE TO THIS USER RUNNING 'VASP/VAMP'   (HEAR YOUR MASTER'S VOICE ...):  |
|                                                                             |
|      You enforced a specific xc-type in the INCAR file,                     |
|      a different type was found on the POTCAR file                          |
|          I HOPE YOU KNOW, WHAT YOU ARE  DOING                               |
|                                                                             |
 ----------------------------------------------------------------------------- 

  PAW_PBE Ce 23Dec2003                  :
 energy of atom  1       EATOM=-1063.0861
 kinetic energy error for atom=    0.0156 (will be added to EATOM!!)
 PAW_PBE O 08Apr2002                    :
 energy of atom  2       EATOM= -432.3788
 kinetic energy error for atom=    0.0224 (will be added to EATOM!!)
 PAW_PBE Ni 06Sep2000                   :
 energy of atom  3       EATOM=-1077.9025
 kinetic energy error for atom=    0.0030 (will be added to EATOM!!)
 PAW_PBE C 08Apr2002                    :
 energy of atom  4       EATOM= -147.1560
 kinetic energy error for atom=    0.0076 (will be added to EATOM!!)
 PAW_PBE H 15Jun2001                    :
 energy of atom  5       EATOM=  -12.4884
 kinetic energy error for atom=    0.0020 (will be added to EATOM!!)
 
 
 POSCAR: CeO2                                    
  positions in direct lattice
  velocities in cartesian coordinates
 exchange correlation table for  LEXCH =       17
   RHO(1)=    0.500       N(1)  =     2000
   RHO(2)=  100.500       N(2)  =     4000

 VTST: version 3.2, (02/03/18)

 CHAIN: initializing optimizer
 
 OPT: Using VASP Quick-Min optimizer
 CHAIN: Read ICHAIN            1
 
 POSCAR: CeO2                                    
  positions in direct lattice
  velocities in cartesian coordinates
 CHAIN: Running the Dynamical Matrix
 


--------------------------------------------------------------------------------------------------------


 ion  position               nearest neighbor table
   1  0.000  0.994  0.030- 117 2.37 137 2.38  79 2.38  61 2.38  50 2.39 123 2.39  58 2.39
   2  0.333  0.158  0.170-  68 2.33  71 2.36  62 2.38  64 2.38  53 2.39  83 2.40  56 2.42  51 2.57

   3  0.157  0.322  0.311-  57 2.27  54 2.28  69 2.29  65 2.42  60 2.43  72 2.48 110 2.56
   4  0.999  0.243  0.031-  70 2.36  61 2.38  88 2.38  76 2.38  79 2.38  49 2.40  59 2.40
   5  0.331  0.410  0.167-  67 2.34 100 2.37  56 2.37 118 2.37  62 2.38  65 2.40 121 2.43  60 2.45

   6  0.165  0.071  0.316- 104 2.42  63 2.45  66 2.48  54 2.48  51 2.51  68 2.52
   7  0.249  0.243  0.030-  58 2.36  56 2.38  67 2.38  64 2.38  49 2.39  61 2.39  52 2.40
   8  0.083  0.411  0.170- 115 2.35  65 2.38 100 2.38  86 2.39  97 2.40  70 2.40  59 2.41  57 2.46

   9  0.410  0.061  0.310- 107 2.29  78 2.42  51 2.43  63 2.45  90 2.45  71 2.46
  10  0.250  0.994  0.029-  53 2.36 117 2.38  55 2.38  58 2.38  96 2.39  64 2.39 114 2.39
  11  0.084  0.159  0.171-  56 2.37  65 2.37  50 2.37  94 2.39  61 2.41  59 2.41  68 2.41  54 2.43

  12  0.410  0.327  0.304-  51 2.24  60 2.30  62 2.36  81 2.37 152 3.02
  13  0.501  0.994  0.030-  82 2.37  74 2.37 140 2.38  85 2.39 114 2.39  55 2.39  99 2.40
  14  0.833  0.161  0.171-  75 2.33  59 2.36  77 2.38  80 2.39  88 2.40  92 2.42  86 2.43  94 2.43

  15  0.679  0.331  0.310-  84 2.27  78 2.36  89 2.43  95 2.44  81 2.55
  16  0.500  0.243  0.030-  55 2.36  93 2.38  85 2.38  83 2.39  73 2.39  52 2.39  64 2.39
  17  0.834  0.412  0.169- 124 2.37  97 2.37  86 2.38  91 2.39  89 2.39  80 2.39 139 2.40  84 2.44

  18  0.668  0.077  0.310-  87 2.32  92 2.35  90 2.37  95 2.40  78 2.43 128 2.43  75 2.43
  19  0.750  0.243  0.030-  82 2.37  91 2.37  85 2.38  88 2.38  76 2.39  73 2.39  80 2.39
  20  0.584  0.409  0.168-  93 2.35  89 2.36  83 2.37 138 2.38  62 2.38 121 2.38 124 2.41  81 2.56

  21  0.915  0.075  0.310-  87 2.30  94 2.38  66 2.39  75 2.39  54 2.40  69 2.42 131 2.42
  22  0.750  0.994  0.031- 140 2.37  79 2.37  88 2.38 120 2.38 137 2.39  77 2.39  82 2.40
  23  0.583  0.161  0.171-  92 2.36  71 2.37  83 2.37  89 2.39  80 2.40  74 2.40  85 2.41  78 2.50

  24  0.917  0.327  0.311-  95 2.26  69 2.38  86 2.39  57 2.39  75 2.40 113 2.41  84 2.47
  25  1.000  0.493  0.029-  97 2.38 105 2.38  76 2.38  91 2.38  70 2.39 126 2.39 108 2.39
  26  0.332  0.661  0.168- 109 2.36 103 2.37 118 2.37 115 2.38 111 2.38 100 2.40 130 2.41  98 2.43

  27  0.168  0.826  0.312-  63 2.20 119 2.35 101 2.36 107 2.40 116 2.42 104 2.42 112 2.47
  28  0.001  0.744  0.028-  96 2.37 106 2.37 108 2.38 135 2.38 117 2.39 123 2.40 126 2.40
  29  0.333  0.909  0.168- 107 2.37  71 2.37 114 2.37 109 2.38 103 2.38 112 2.39  74 2.39  53 2.39

  30  0.166  0.580  0.316- 101 2.40 113 2.45 119 2.46  98 2.46  57 2.47
  31  0.250  0.744  0.028- 103 2.37 111 2.38 108 2.38 114 2.38  99 2.38  96 2.39 105 2.40
  32  0.085  0.910  0.170- 112 2.36  53 2.38  50 2.39 104 2.39 133 2.39  68 2.40 106 2.40 117 2.42

  33  0.410  0.579  0.303-  98 2.25 118 2.38  60 2.40 125 2.41 143 3.06
  34  0.249  0.493  0.029- 105 2.36  49 2.36 100 2.37 102 2.39 111 2.39  67 2.40  70 2.40
  35  0.085  0.661  0.169- 115 2.36 139 2.37 112 2.37 103 2.37  97 2.39 106 2.40 108 2.41 101 2.43

  36  0.416  0.829  0.311-  90 2.28 119 2.31 107 2.32  98 2.38 128 2.38 109 2.47 142 2.51
  37  0.500  0.493  0.029-  52 2.37 129 2.37 121 2.38 102 2.38 132 2.39  67 2.39  93 2.40
  38  0.837  0.662  0.167- 106 2.35 133 2.36 135 2.36 139 2.36 138 2.38 127 2.39 124 2.39 122 2.49

  39  0.669  0.830  0.312- 131 2.39 128 2.39  87 2.46 136 2.47 142 2.55
  40  0.500  0.744  0.029- 130 2.36  99 2.38 132 2.38 140 2.38 111 2.39 102 2.40 120 2.40
  41  0.833  0.909  0.170-  94 2.37 136 2.38 133 2.38 137 2.39 127 2.39 131 2.40  50 2.40  77 2.41

  42  0.676  0.582  0.302- 122 2.21 125 2.24 138 2.30  81 2.30 134 2.45 141 2.45 147 2.95 144 3.04

  43  0.751  0.744  0.029- 120 2.37 123 2.37 127 2.37 135 2.38 132 2.39 137 2.39 129 2.41
  44  0.583  0.909  0.170- 109 2.35 128 2.37 130 2.38  77 2.39  74 2.39 136 2.41 140 2.42  92 2.44

  45  0.926  0.582  0.311- 101 2.26 113 2.27 116 2.30  84 2.34 122 2.43 139 2.45
  46  0.751  0.493  0.029- 126 2.37  73 2.37 124 2.38 129 2.38  91 2.39  93 2.40 135 2.40
  47  0.584  0.660  0.167- 136 2.34 132 2.37 121 2.37 118 2.37 130 2.39 127 2.39 138 2.43 125 2.51

  48  0.923  0.830  0.311-  66 2.26 104 2.27 131 2.34 116 2.39 122 2.44 133 2.44
  49  0.167  0.327  0.995-  34 2.36   7 2.39   4 2.40
  50  0.001  0.994  0.135-  11 2.37  32 2.39   1 2.39  41 2.40
  51  0.342  0.166  0.282-  12 2.24   9 2.43   6 2.51   2 2.57
  52  0.417  0.327  0.994-  37 2.37  16 2.39   7 2.40
  53  0.250  0.993  0.132-  10 2.36  32 2.38   2 2.39  29 2.39
  54  0.084  0.162  0.277-   3 2.28  21 2.40  11 2.43   6 2.48
  55  0.417  0.078  0.995-  16 2.36  10 2.38  13 2.39
  56  0.248  0.243  0.134-   5 2.37  11 2.37   7 2.38   2 2.42
  57  0.086  0.409  0.278-   3 2.27  24 2.39   8 2.46  30 2.47
  58  0.167  0.078  0.995-   7 2.36  10 2.38   1 2.39
  59  0.998  0.242  0.135-  14 2.36   4 2.40  11 2.41   8 2.41
  60  0.327  0.408  0.274-  12 2.30  33 2.40   3 2.43   5 2.45
  61  0.083  0.160  0.066-   4 2.38   1 2.38   7 2.39  11 2.41
  62  0.416  0.327  0.201-  12 2.36   2 2.38   5 2.38  20 2.38
  63  0.241  0.975  0.351-  27 2.20   9 2.45   6 2.45
  64  0.333  0.161  0.066-   7 2.38   2 2.38  16 2.39  10 2.39
  65  0.164  0.326  0.205-  11 2.37   8 2.38   5 2.40   3 2.42
  66  0.990  0.984  0.349-  48 2.26  21 2.39   6 2.48
  67  0.333  0.410  0.065-   5 2.34   7 2.38  37 2.39  34 2.40
  68  0.171  0.078  0.206-   2 2.33  32 2.40  11 2.41   6 2.52
  69  0.999  0.243  0.348-   3 2.29  24 2.38  21 2.42
  70  0.082  0.409  0.066-   4 2.36  25 2.39   8 2.40  34 2.40
  71  0.415  0.075  0.203-   2 2.36  23 2.37  29 2.37   9 2.46
  72  0.245  0.250  0.365- 152 1.82   3 2.48
  73  0.667  0.327  0.994-  46 2.37  16 2.39  19 2.39
  74  0.501  0.994  0.133-  13 2.37  44 2.39  29 2.39  23 2.40
  75  0.837  0.162  0.272-  14 2.33  21 2.39  24 2.40  18 2.43
  76  0.916  0.326  0.994-   4 2.38  25 2.38  19 2.39
  77  0.750  0.994  0.135-  14 2.38  44 2.39  22 2.39  41 2.41
  78  0.581  0.164  0.281-  15 2.36   9 2.42  18 2.43  23 2.50
  79  0.916  0.077  0.995-  22 2.37   1 2.38   4 2.38
  80  0.750  0.244  0.135-  14 2.39  17 2.39  19 2.39  23 2.40
  81  0.581  0.415  0.280-  42 2.30  12 2.37  15 2.55  20 2.56
  82  0.667  0.078  0.995-  13 2.37  19 2.37  22 2.40
  83  0.501  0.243  0.134-  20 2.37  23 2.37  16 2.39   2 2.40
  84  0.836  0.419  0.275-  15 2.27  45 2.34  17 2.44  24 2.47
  85  0.584  0.161  0.066-  19 2.38  16 2.38  13 2.39  23 2.41
  86  0.917  0.330  0.207-  17 2.38   8 2.39  24 2.39  14 2.43
  87  0.756  0.003  0.346-  21 2.30  18 2.32  39 2.46
  88  0.833  0.160  0.066-   4 2.38  19 2.38  22 2.38  14 2.40
  89  0.667  0.329  0.205-  20 2.36  17 2.39  23 2.39  15 2.43
  90  0.504  0.985  0.348-  36 2.28  18 2.37   9 2.45
  91  0.833  0.410  0.065-  19 2.37  25 2.38  17 2.39  46 2.39
  92  0.665  0.078  0.208-  18 2.35  23 2.36  14 2.42  44 2.44
  93  0.584  0.409  0.065-  20 2.35  16 2.38  46 2.40  37 2.40
  94  0.917  0.074  0.207-  41 2.37  21 2.38  11 2.39  14 2.43
  95  0.761  0.243  0.347-  24 2.26  18 2.40  15 2.44
  96  0.167  0.828  0.993-  28 2.37  10 2.39  31 2.39
  97  1.000  0.494  0.133-  17 2.37  25 2.38  35 2.39   8 2.40
  98  0.335  0.663  0.274-  33 2.25  36 2.38  26 2.43  30 2.46
  99  0.417  0.827  0.993-  40 2.38  31 2.38  13 2.40
 100  0.248  0.492  0.132-   5 2.37  34 2.37   8 2.38  26 2.40
 101  0.083  0.662  0.275-  45 2.26  27 2.36  30 2.40  35 2.43
 102  0.416  0.576  0.994-  37 2.38  34 2.39  40 2.40
 103  0.249  0.743  0.132-  26 2.37  31 2.37  35 2.37  29 2.38
 104  0.079  0.905  0.274-  48 2.27  32 2.39  27 2.42   6 2.42
 105  0.166  0.575  0.994-  34 2.36  25 2.38  31 2.40
 106  0.002  0.744  0.132-  38 2.35  28 2.37  32 2.40  35 2.40
 107  0.333  0.904  0.271-   9 2.29  36 2.32  29 2.37  27 2.40
 108  0.084  0.661  0.064-  28 2.38  31 2.38  25 2.39  35 2.41
 109  0.417  0.826  0.203-  44 2.35  26 2.36  29 2.38  36 2.47
 110  0.251  0.486  0.367- 150 1.84   3 2.56
 111  0.333  0.661  0.064-  31 2.38  26 2.38  40 2.39  34 2.39
 112  0.167  0.827  0.204-  32 2.36  35 2.37  29 2.39  27 2.47
 113  0.993  0.493  0.349-  45 2.27  24 2.41  30 2.45
 114  0.334  0.910  0.064-  29 2.37  31 2.38  13 2.39  10 2.39
 115  0.166  0.577  0.204-   8 2.35  35 2.36  26 2.38
 116  0.999  0.741  0.348-  45 2.30  48 2.39  27 2.42
 117  0.083  0.911  0.064-   1 2.37  10 2.38  28 2.39  32 2.42
 118  0.416  0.577  0.200-  26 2.37   5 2.37  47 2.37  33 2.38
 119  0.257  0.754  0.350-  36 2.31  27 2.35  30 2.46
 120  0.669  0.828  0.994-  43 2.37  22 2.38  40 2.40
 121  0.502  0.494  0.132-  47 2.37  37 2.38  20 2.38   5 2.43
 122  0.834  0.659  0.275-  42 2.21  45 2.43  48 2.44  38 2.49
 123  0.917  0.828  0.993-  43 2.37   1 2.39  28 2.40
 124  0.752  0.494  0.132-  17 2.37  46 2.38  38 2.39  20 2.41
 125  0.582  0.648  0.276-  42 2.24  33 2.41  47 2.51
 126  0.916  0.576  0.993-  46 2.37  25 2.39  28 2.40
 127  0.751  0.743  0.132-  43 2.37  47 2.39  38 2.39  41 2.39
 128  0.581  0.907  0.273-  44 2.37  36 2.38  39 2.39  18 2.43
 129  0.666  0.576  0.994-  37 2.37  46 2.38  43 2.41
 130  0.500  0.744  0.132-  40 2.36  44 2.38  47 2.39  26 2.41
 131  0.835  0.905  0.275-  48 2.34  39 2.39  41 2.40  21 2.42
 132  0.584  0.661  0.064-  47 2.37  40 2.38  43 2.39  37 2.39
 133  0.917  0.825  0.204-  38 2.36  41 2.38  32 2.39  48 2.44
 134  0.739  0.498  0.365- 147 1.85  42 2.45
 135  0.835  0.661  0.064-  38 2.36  28 2.38  43 2.38  46 2.40
 136  0.666  0.823  0.204-  47 2.34  41 2.38  44 2.41  39 2.47
 137  0.834  0.911  0.066-   1 2.38  22 2.39  41 2.39  43 2.39
 138  0.671  0.577  0.202-  42 2.30  38 2.38  20 2.38  47 2.43
 139  0.919  0.580  0.205-  38 2.36  35 2.37  17 2.40  45 2.45
 140  0.584  0.911  0.065-  22 2.37  13 2.38  40 2.38  44 2.42
 141  0.749  0.733  0.361- 144 1.86  42 2.45
 142  0.498  0.745  0.360- 143 1.82  36 2.51  39 2.55
 143  0.517  0.675  0.417- 142 1.82 145 2.26 144 2.35 146 2.39 150 2.96  33 3.06
 144  0.660  0.660  0.421- 141 1.86 143 2.35 149 2.44 146 2.51 147 2.52  42 3.04
 145  0.457  0.594  0.502- 143 2.26 151 2.32 149 2.44 150 2.52 146 2.55
 146  0.490  0.509  0.417- 149 2.27 148 2.32 143 2.39 150 2.40 144 2.51 151 2.53 145 2.55 147 2.58
                           152 2.65
 147  0.646  0.491  0.418- 134 1.85 148 2.38 149 2.44 144 2.52 146 2.58  42 2.95
 148  0.489  0.372  0.458- 146 2.32 151 2.36 147 2.38 152 2.43 149 2.49
 149  0.581  0.542  0.500- 146 2.27 144 2.44 147 2.44 145 2.44 148 2.49 151 2.59
 150  0.326  0.486  0.429- 110 1.84 146 2.40 152 2.41 151 2.50 145 2.52 143 2.96
 151  0.391  0.423  0.508- 145 2.32 152 2.35 148 2.36 150 2.50 146 2.53 149 2.59
 152  0.326  0.332  0.422-  72 1.82 151 2.35 150 2.41 148 2.43 146 2.65  12 3.02
 153  0.517  0.887  0.502- 157 1.09 156 1.09 154 1.09 155 1.09
 154  0.438  0.834  0.498- 153 1.09
 155  0.556  0.849  0.516- 153 1.09
 156  0.529  0.944  0.534- 153 1.09
 157  0.545  0.921  0.460- 153 1.09
 
  Warning from LATTYP: Monoclinic adjustement (A1->A3, A2->A1, A3->A2)!
  Warning from LATTYP: Got some problem with cell dimensions!
  Tried to take original basis but could not verify dimensions!
  LATTYP: Found a simple monoclinic cell.
 ALAT       =    26.8920015643
 B/A-ratio  =     0.8524170487
 C/A-ratio  =     1.5275230572
 COS(beta)  =    -0.9819802295
  
  Lattice vectors:
  
 A1 = (   0.0002382649, -26.8920015632,   0.0000000000)
 A2 = (   0.0000000000,   0.0000000000, -22.9232006073)
 A3 = (   7.7627427499,  40.3380023448,   0.0000000000)


Analysis of symmetry for initial positions (statically):
=====================================================================
 Subroutine PRICEL returns:
 Original cell was already a primitive cell.
 

 Routine SETGRP: Setting up the symmetry group for a 
 simple monoclinic supercell.


 Subroutine GETGRP returns: Found  1 space group operations
 (whereof  1 operations were pure point group operations)
 out of a pool of  4 trial point group operations.


The static configuration has the point symmetry C_1 .


Analysis of symmetry for dynamics (positions and initial velocities):
=====================================================================
 Subroutine PRICEL returns:
 Original cell was already a primitive cell.
 

 Routine SETGRP: Setting up the symmetry group for a 
 simple monoclinic supercell.


 Subroutine GETGRP returns: Found  1 space group operations
 (whereof  1 operations were pure point group operations)
 out of a pool of  4 trial point group operations.


The dynamic configuration has the point symmetry C_1 .


Analysis of structural, dynamic, and magnetic symmetry:
=====================================================================
 Subroutine PRICEL returns:
 Original cell was already a primitive cell.
 

 Routine SETGRP: Setting up the symmetry group for a 
 simple monoclinic supercell.


 Subroutine GETGRP returns: Found  1 space group operations
 (whereof  1 operations were pure point group operations)
 out of a pool of  4 trial point group operations.


The magnetic configuration has the point symmetry C_1 .


 Subroutine INISYM returns: Found  1 space group operations
 (whereof  1 operations are pure point group operations),
 and found     1 'primitive' translations

 
 
 KPOINTS: Gamma-point only                        
  k-points in reciprocal lattice
Space group operators:
 irot       det(A)        alpha          n_x          n_y          n_z        tau_x        tau_y        tau_z
    1     1.000000     0.000000     1.000000     0.000000     0.000000     0.000000     0.000000     0.000000


--------------------------------------------------------------------------------------------------------




 Dimension of arrays:
   k-points           NKPTS =      1   k-points in BZ     NKDIM =      1   number of bands    NBANDS=    828
   number of dos      NEDOS =    301   number of ions     NIONS =    157
   non local maximal  LDIM  =      8   non local SUM 2l+1 LMDIM =     32
   total plane-waves  NPLWV = ******
   max r-space proj   IRMAX =   8153   max aug-charges    IRDMAX= 213343
   dimension x,y,z NGX =   120 NGY =  120 NGZ =  168
   dimension x,y,z NGXF=   240 NGYF=  240 NGZF=  336
   support grid    NGXF=   480 NGYF=  480 NGZF=  672
   ions per type =              48  94  10   1   4
   NGX,Y,Z   is equivalent  to a cutoff of  12.85, 12.85, 12.18 a.u.
   NGXF,Y,Z  is equivalent  to a cutoff of  25.70, 25.70, 24.37 a.u.

 SYSTEM =  CeO2                                    
 POSCAR =  CeO2                                    

 Startparameter for this run:
   NWRITE =      2    write-flag & timer
   PREC   = acc       normal or accurate (medium, high low for compatibility)
   ISTART =      0    job   : 0-new  1-cont  2-samecut
   ICHARG =      2    charge: 1-file 2-atom 10-const
   ISPIN  =      2    spin polarized calculation?
   LNONCOLLINEAR =      F non collinear calculations
   LSORBIT =      F    spin-orbit coupling
   INIWAV =      1    electr: 0-lowe 1-rand  2-diag
   LASPH  =      F    aspherical Exc in radial PAW
   METAGGA=      F    non-selfconsistent MetaGGA calc.

 Electronic Relaxation 1
   ENCUT  =  500.0 eV  36.75 Ry    6.06 a.u.  28.31 28.31 41.79*2*pi/ulx,y,z
   ENINI  =  500.0     initial cutoff
   ENAUG  =  644.9 eV  augmentation charge cutoff
   NELM   =    100;   NELMIN=  2; NELMDL= -5     # of ELM steps 
   EDIFF  = 0.1E-03   stopping-criterion for ELM
   LREAL  =      T    real-space projection
   NLSPLINE    = F    spline interpolate recip. space projectors
   LCOMPAT=      F    compatible to vasp.4.4
   GGA_COMPAT  = T    GGA compatible to vasp.4.4-vasp.4.6
   LMAXPAW     = -100 max onsite density
   LMAXMIX     =    6 max onsite mixed and CHGCAR
   VOSKOWN=      0    Vosko Wilk Nusair interpolation
   ROPT   =   -0.00025  -0.00025  -0.00025  -0.00025
   ROPT   =   -0.00025
 Ionic relaxation
   EDIFFG = 0.1E-02   stopping-criterion for IOM
   NSW    =     16    number of steps for IOM
   NBLOCK =      1;   KBLOCK =     16    inner block; outer block 
   IBRION =      3    ionic relax: 0-MD 1-quasi-New 2-CG
   NFREE  =      0    steps in history (QN), initial steepest desc. (CG)
   ISIF   =      2    stress and relaxation
   IWAVPR =     11    prediction:  0-non 1-charg 2-wave 3-comb
   ISYM   =      2    0-nonsym 1-usesym 2-fastsym
   LCORR  =      T    Harris-Foulkes like correction to forces

   POTIM  = 0.0000    time-step for ionic-motion
   TEIN   =    0.0    initial temperature
   TEBEG  =    0.0;   TEEND  =   0.0 temperature during run
   SMASS  =  -3.00    Nose mass-parameter (am)
   estimated Nose-frequenzy (Omega)   =  0.10E-29 period in steps =  0.00 mass=  -0.551E-26a.u.
   SCALEE = 1.0000    scale energy and forces
   NPACO  =    256;   APACO  = 16.0  distance and # of slots for P.C.
   PSTRESS=    0.0 pullay stress

  Mass of Ions in am
   POMASS = 140.12 16.00 58.69 12.01  1.00
  Ionic Valenz
   ZVAL   =  12.00  6.00 10.00  4.00  1.00
  Atomic Wigner-Seitz radii
   RWIGS  =  -1.00 -1.00 -1.00 -1.00 -1.00
  virtual crystal weights 
   VCA    =   1.00  1.00  1.00  1.00  1.00
   NELECT =    1248.0000    total number of electrons
   NUPDOWN=      -1.0000    fix difference up-down

 DOS related values:
   EMIN   =  10.00;   EMAX   =-10.00  energy-range for DOS
   EFERMI =   0.00
   ISMEAR =     0;   SIGMA  =   0.10  broadening in eV -4-tet -1-fermi 0-gaus

 Electronic relaxation 2 (details)
   IALGO  =     38    algorithm
   LDIAG  =      T    sub-space diagonalisation (order eigenvalues)
   LSUBROT=      F    optimize rotation matrix (better conditioning)
   TURBO    =      0    0=normal 1=particle mesh
   IRESTART =      0    0=no restart 2=restart with 2 vectors
   NREBOOT  =      0    no. of reboots
   NMIN     =      0    reboot dimension
   EREF     =   0.00    reference energy to select bands
   IMIX   =      4    mixing-type and parameters
     AMIX     =   0.40;   BMIX     =  1.00
     AMIX_MAG =   1.60;   BMIX_MAG =  1.00
     AMIN     =   0.10
     WC   =   100.;   INIMIX=   1;  MIXPRE=   1;  MAXMIX= -45

 Intra band minimization:
   WEIMIN = 0.0010     energy-eigenvalue tresh-hold
   EBREAK =  0.30E-07  absolut break condition
   DEPER  =   0.30     relativ break condition  

   TIME   =   0.40     timestep for ELM

  volume/ion in A,a.u.               =      30.48       205.70
  Fermi-wavevector in a.u.,A,eV,Ry     =   1.045928  1.976518 14.884306  1.093966
  Thomas-Fermi vector in A             =   2.180745
 
 Write flags
   LWAVE        =      F    write WAVECAR
   LDOWNSAMPLE  =      F    k-point downsampling of WAVECAR
   LCHARG       =      F    write CHGCAR
   LVTOT        =      F    write LOCPOT, total local potential
   LVHAR        =      F    write LOCPOT, Hartree potential only
   LELF         =      F    write electronic localiz. function (ELF)
   LORBIT       =      0    0 simple, 1 ext, 2 COOP (PROOUT), +10 PAW based schemes


 Dipole corrections
   LMONO  =      F    monopole corrections only (constant potential shift)
   LDIPOL =      F    correct potential (dipole corrections)
   IDIPOL =      3    1-x, 2-y, 3-z, 4-all directions 
   EPSILON=  1.0000000 bulk dielectric constant

 LDA+U is selected, type is set to LDAUTYPE =  2
   angular momentum for each species LDAUL =     3   -1   -1   -1   -1
   U (eV)           for each species LDAUU =   5.0  0.0  0.0  0.0  0.0
   J (eV)           for each species LDAUJ =   0.0  0.0  0.0  0.0  0.0
 Exchange correlation treatment:
   GGA     =    BF    GGA type
   LEXCH   =    17    internal setting for exchange type
   VOSKOWN=      0    Vosko Wilk Nusair interpolation
   LHFCALC =     F    Hartree Fock is set to
   LHFONE  =     F    Hartree Fock one center treatment
   AEXX    =    0.0000 exact exchange contribution

 vdW DFT:
   LUSE_VDW   =     T    switch on vdW DFT
   Zab_VDW    =******    correlation parameter
   PARAM1     =0.1234
   PARAM2     =1.0000
   PARAM3     =0.0000
   -- rVV10 --
   BPARAM     = 6.3000
   CPARAM     = 0.0093

 Linear response parameters
   LEPSILON=     F    determine dielectric tensor
   LRPA    =     F    only Hartree local field effects (RPA)
   LNABLA  =     F    use nabla operator in PAW spheres
   LVEL    =     F    velocity operator in full k-point grid
   LINTERFAST=   F  fast interpolation
   KINTER  =     0    interpolate to denser k-point grid
   CSHIFT  =0.1000    complex shift for real part using Kramers Kronig
   OMEGAMAX=  -1.0    maximum frequency
   DEG_THRESHOLD= 0.2000000E-02 threshold for treating states as degnerate
   RTIME   =   -0.100 relaxation time in fs
  (WPLASMAI=    0.000 imaginary part of plasma frequency in eV, 0.658/RTIME)
   DFIELD  = 0.0000000 0.0000000 0.0000000 field for delta impulse in time
 
 Orbital magnetization related:
   ORBITALMAG=     F  switch on orbital magnetization
   LCHIMAG   =     F  perturbation theory with respect to B field
   DQ        =  0.001000  dq finite difference perturbation B field
   LLRAUG    =     F  two centre corrections for induced B field



--------------------------------------------------------------------------------------------------------


 quickmin algorithm: (dynamic with friction)
 charge density and potential will be updated during run
 spin polarized calculation
 Variant of blocked Davidson
 Davidson routine will perform the subspace rotation
 perform sub-space diagonalisation
    after iterative eigenvector-optimisation
 modified Broyden-mixing scheme, WC =      100.0
 initial mixing is a Kerker type mixing with AMIX =  0.4000 and BMIX =      1.0000
 Hartree-type preconditioning will be used
 using additional bands          204
 real space projection scheme for non local part
 use partial core corrections
 calculate Harris-corrections to forces 
   (improved forces if not selfconsistent)
 use gradient corrections 
 use of overlap-Matrix (Vanderbilt PP)
 Gauss-broadening in eV      SIGMA  =   0.10


--------------------------------------------------------------------------------------------------------


  energy-cutoff  :      500.00
  volume of cell :     4785.57
      direct lattice vectors                 reciprocal lattice vectors
    15.526200295  0.000000000  0.000000000     0.064407259  0.037186349  0.000000000
    -7.763219280 13.446000782  0.000000000     0.000000000  0.074371556  0.000000000
     0.000000000  0.000000000 22.923200607     0.000000000  0.000000000  0.043623926

  length of vectors
    15.526200295 15.526187897 22.923200607     0.074371497  0.074371556  0.043623926


 
 k-points in units of 2pi/SCALE and weight: Gamma-point only                        
   0.00000000  0.00000000  0.00000000       1.000
 
 k-points in reciprocal lattice and weights: Gamma-point only                        
   0.00000000  0.00000000  0.00000000       1.000
 
 position of ions in fractional coordinates (direct lattice) 
   0.00003917  0.99405901  0.03033624
   0.33275360  0.15837075  0.17008906
   0.15721200  0.32180035  0.31089711
   0.99940599  0.24336840  0.03090695
   0.33112050  0.40956871  0.16736282
   0.16489353  0.07057290  0.31598743
   0.24944105  0.24294864  0.03007226
   0.08325102  0.41124385  0.17040873
   0.40989880  0.06072202  0.31032090
   0.25007399  0.99406317  0.02938641
   0.08356700  0.15929873  0.17109050
   0.40986351  0.32711024  0.30354974
   0.50116035  0.99429240  0.03002322
   0.83340378  0.16050958  0.17064895
   0.67860277  0.33119657  0.31047157
   0.50015182  0.24298369  0.02992081
   0.83441401  0.41199105  0.16916542
   0.66772150  0.07660911  0.31043988
   0.74972291  0.24325398  0.03048782
   0.58379476  0.40948908  0.16782093
   0.91509782  0.07454016  0.31045788
   0.75033990  0.99380801  0.03064963
   0.58279714  0.16052626  0.17149054
   0.91731287  0.32689769  0.31125979
   0.99974462  0.49285546  0.02920928
   0.33198047  0.66077687  0.16777516
   0.16772281  0.82605775  0.31154614
   0.00109100  0.74435055  0.02810917
   0.33349196  0.90933701  0.16783895
   0.16601270  0.58039554  0.31598990
   0.25007116  0.74357714  0.02818636
   0.08459922  0.91048042  0.16978392
   0.41018729  0.57913969  0.30328025
   0.24904571  0.49282572  0.02896259
   0.08460138  0.66070276  0.16886640
   0.41557993  0.82853812  0.31073815
   0.50032839  0.49326695  0.02887153
   0.83726968  0.66168843  0.16664619
   0.66878473  0.82978071  0.31161650
   0.50014280  0.74398794  0.02888695
   0.83320552  0.90850033  0.17027481
   0.67621344  0.58178159  0.30191321
   0.75095159  0.74448588  0.02872753
   0.58268294  0.90897436  0.17004683
   0.92637337  0.58216178  0.31140669
   0.75060234  0.49312157  0.02850067
   0.58364255  0.66025237  0.16718476
   0.92279632  0.83023274  0.31101212
   0.16651264  0.32704763  0.99466351
   0.00123828  0.99403848  0.13455324
   0.34215050  0.16553146  0.28183998
   0.41716817  0.32683296  0.99446977
   0.24961448  0.99292203  0.13242391
   0.08418224  0.16218421  0.27706969
   0.41723015  0.07783138  0.99464225
   0.24826612  0.24283336  0.13379058
   0.08561679  0.40888626  0.27756176
   0.16708635  0.07819813  0.99457951
   0.99798110  0.24217736  0.13543751
   0.32661379  0.40786155  0.27433620
   0.08276733  0.16041503  0.06609738
   0.41599200  0.32715141  0.20085588
   0.24137842  0.97514261  0.35073818
   0.33334377  0.16054846  0.06607804
   0.16444740  0.32595509  0.20532979
   0.98965489  0.98436904  0.34938274
   0.33334884  0.40968382  0.06514741
   0.17081398  0.07753043  0.20614371
   0.99873958  0.24259695  0.34764052
   0.08177379  0.40885313  0.06583659
   0.41517561  0.07488961  0.20345560
   0.24506759  0.25029560  0.36507113
   0.66670199  0.32670069  0.99404112
   0.50149761  0.99409516  0.13348709
   0.83650436  0.16153591  0.27232866
   0.91635954  0.32605511  0.99436692
   0.74995085  0.99429150  0.13502226
   0.58135078  0.16360022  0.28054393
   0.91619963  0.07681615  0.99517895
   0.74999977  0.24393293  0.13492412
   0.58096942  0.41542338  0.27958793
   0.66681299  0.07763530  0.99474386
   0.50067479  0.24296540  0.13397281
   0.83636353  0.41920348  0.27545264
   0.58381220  0.16066648  0.06616649
   0.91720486  0.33043288  0.20712444
   0.75561626  0.00284656  0.34604377
   0.83300855  0.16033780  0.06608422
   0.66739444  0.32933664  0.20481471
   0.50412373  0.98502373  0.34849265
   0.83345507  0.40968284  0.06502547
   0.66506417  0.07824451  0.20786206
   0.58378578  0.40928348  0.06544464
   0.91674283  0.07368604  0.20685392
   0.76057072  0.24307010  0.34705790
   0.16682248  0.82776197  0.99271050
   0.99954063  0.49396789  0.13299346
   0.33469443  0.66328489  0.27390386
   0.41717477  0.82724773  0.99336795
   0.24817916  0.49236483  0.13243946
   0.08290373  0.66180795  0.27491729
   0.41625428  0.57580884  0.99394514
   0.24941781  0.74310807  0.13170413
   0.07914211  0.90535974  0.27400646
   0.16607332  0.57479754  0.99364238
   0.00166427  0.74443608  0.13162300
   0.33270013  0.90442671  0.27116802
   0.08369646  0.66068245  0.06353557
   0.41682710  0.82597622  0.20293100
   0.25111365  0.48554899  0.36686599
   0.33306491  0.66062142  0.06382777
   0.16673065  0.82679494  0.20398039
   0.99263606  0.49349631  0.34946836
   0.33366496  0.90983965  0.06435428
   0.16606138  0.57667560  0.20367998
   0.99917102  0.74084468  0.34812852
   0.08335298  0.91092543  0.06407164
   0.41607955  0.57715974  0.19951935
   0.25741742  0.75380984  0.34985529
   0.66852012  0.82803256  0.99401443
   0.50198378  0.49426959  0.13247432
   0.83427469  0.65940807  0.27530734
   0.91659864  0.82784691  0.99327286
   0.75205098  0.49393158  0.13210654
   0.58185453  0.64760300  0.27625138
   0.91633882  0.57600065  0.99319251
   0.75082191  0.74274341  0.13216234
   0.58081163  0.90727994  0.27325765
   0.66643472  0.57551915  0.99392202
   0.50043662  0.74401633  0.13187077
   0.83503348  0.90492683  0.27494913
   0.58377723  0.66067263  0.06386003
   0.91675553  0.82455901  0.20449195
   0.73888067  0.49807766  0.36526569
   0.83459299  0.66107051  0.06363974
   0.66577860  0.82258946  0.20375821
   0.83391025  0.91060363  0.06614008
   0.67098290  0.57663725  0.20182286
   0.91915937  0.58009783  0.20463623
   0.58392481  0.91051142  0.06465662
   0.74866184  0.73321338  0.36146159
   0.49823777  0.74489751  0.36021779
   0.51718030  0.67500145  0.41732954
   0.66028896  0.65992304  0.42057491
   0.45667723  0.59394761  0.50240607
   0.48964642  0.50891892  0.41720109
   0.64615739  0.49104281  0.41849734
   0.48943311  0.37161887  0.45754268
   0.58123071  0.54206266  0.50011980
   0.32607032  0.48641831  0.42907564
   0.39085905  0.42338132  0.50809132
   0.32647563  0.33195155  0.42187776
   0.51710675  0.88695964  0.50192597
   0.43772186  0.83380539  0.49825384
   0.55626112  0.84864010  0.51612479
   0.52889073  0.94385410  0.53385810
   0.54544007  0.92140786  0.45958687
 
 position of ions in cartesian coordinates  (Angst):
  -7.71648990 13.36611826  0.69540360
   3.93693223  2.12945323  3.89898557
  -0.05730167  4.32692776  7.12675674
  13.62765531  3.27233165  0.70848613
   1.96147149  5.50706119  3.83649139
   2.01229704  0.94892330  7.24344335
   1.98680819  3.26668759  0.68935234
  -1.90000421  5.52958508  3.90631359
   5.89277254  0.81646829  7.11354815
  -3.83443150 13.36617418  0.67363066
   0.06080703  2.14193088  3.92194191
   3.82419452  4.39832451  6.95833162
   0.06220601 13.36925634  0.68822829
  11.69352284  2.15821200  3.91182018
   7.96497084  4.45326937  7.11700218
   5.87912169  3.26715886  0.68588078
   9.75690213  5.53963204  3.87781288
   9.77244444  1.03008617  7.11627557
   9.75191419  3.27079314  0.69887835
   5.88516083  5.50599044  3.84699289
  13.62932049  1.00226703  7.11668824
   3.93477806 13.36274328  0.70258761
   7.80242460  2.15843620  3.93111201
  11.70460496  4.39546656  7.13507058
  11.69609018  6.62693487  0.66957025
   0.02463964  8.88480625  3.84594367
  -3.80876958 11.10717317  7.14163467
  -5.76161747 10.00853803  0.64435213
  -1.88151973 12.22694617  3.84740598
  -1.92819145  7.80399885  7.24349984
  -1.88989738  9.99813877  0.64612168
  -5.75475473 12.24232043  3.89199088
   1.87266162  7.78711272  6.95215399
   0.04081953  6.62653499  0.66391519
  -3.81564247  8.88380978  3.87095839
   0.02025410 11.14052423  7.12311291
   3.93885930  6.63246783  0.66182785
   7.86278438  8.89706318  3.82006401
   3.94191608 11.15723213  7.14324753
   1.98957576 10.00366241  0.66218133
   5.88362850 12.21569610  3.90324354
   5.98252731  7.82263567  6.92081701
   5.87981760 10.01035776  0.65852683
   1.99028475 12.22206990  3.89801766
   9.86360903  7.82774772  7.13843812
   7.82579129  6.63051308  0.65332664
   3.93606719  8.87775394  3.83240975
   7.88224160 11.16331014  7.12939316
   0.04636612  4.39748268 22.80087107
  -7.69771285 13.36584214  3.08439096
   4.02724025  2.22573608  6.46067447
   3.93976054  4.39459627 22.79643009
  -3.83270708 13.35083034  3.03557991
   0.04795879  2.18072896  6.35132398
   5.87377686  1.04652081 22.80038379
   1.96946084  3.26513753  3.06690826
  -1.84497023  5.49788499  6.36260389
   1.98714693  1.05145206 22.79894563
  13.61477844  3.25631696  3.10466115
   1.90475238  5.48410677  6.28866372
   0.03972506  2.15694056  1.51516359
   3.91902706  4.39887807  4.60425970
  -3.82255625 13.11176831  8.04004169
   3.92918926  2.15873468  1.51472013
   0.02278244  4.38279245  4.70681596
   7.72370732 13.23582686  8.00897066
   1.99517548  5.50860892  1.49338706
   2.05020628  1.04247424  4.72547370
  13.62329747  3.26195880  7.96903339
  -1.90438029  5.49743955  1.50918541
   5.86471528  1.00696571  4.66385364
   1.86186890  3.36547479  8.36859879
   7.81509944  4.39281779 22.78660405
   0.06897359 13.36660436  3.05995131
  11.73369556  2.17201201  6.24264456
  11.69634441  4.38413721 22.79407245
   3.92498418 13.36924428  3.09514226
   7.75610418  2.19976875  6.43096469
  13.62875832  1.03286995 22.81268663
   9.75094183  3.27992238  3.09289270
   5.79522474  5.58578308  6.40905029
   9.75037215  1.04388434 22.80271306
   5.88738332  3.26691298  3.07108559
   9.73117913  5.63661032  6.31425612
   7.81709611  2.16032157  1.51674772
  11.67548354  4.44300075  4.74795508
  11.70975090  0.03827484  7.93243068
  11.68872009  2.15590220  1.51486186
   7.80538715  4.42826075  4.69500858
   0.18017088 13.24462978  7.98856690
   9.75993266  5.50859582  1.49059195
   9.71849028  1.05207571  4.76486362
   5.88661754  5.50322598  1.50020072
  13.66149191  0.99078256  4.74175394
   9.92176689  3.26832072  7.95567796
  -3.83597854 11.13008814 22.75610195
  11.68428687  6.64189269  3.04863574
   0.04730669  8.91852912  6.27875304
   0.05503351 11.12317361 22.77117287
   0.03094326  6.62033783  3.03593620
  -3.85058024  8.89867016  6.30198419
   1.99271704  7.74232616 22.78440380
  -1.89640008  9.99183170  3.01908012
  -5.79972996 12.17346771  6.28110500
  -1.88379171  7.72872821 22.77746363
  -5.75338082 10.00968814  3.01722042
  -1.85569397 12.16092228  6.21603884
  -3.82953473  8.88353676  1.45643855
   0.05950645 11.10607696  4.65182809
   0.12941751  6.52869205  8.40974279
   0.04268356  8.88271613  1.46313676
  -3.82989695 11.11708547  4.67588330
  11.58074626  6.63555172  8.01093332
  -1.88273573 12.23370465  1.47520616
  -1.89855684  7.75398060  4.66899702
   9.76198965  9.96139815  7.98021998
  -5.77755888 12.24830410  1.46872696
   1.97951684  7.76049031  4.57362218
  -1.85527662 10.13572765  8.01980300
   3.95137898 11.13372647 22.78599221
   3.95677752  6.64594934  3.03673549
   7.83398646  8.86640143  6.31092528
   7.80453699 11.13123017 22.76899294
   7.84199496  6.64140439  3.02830473
   4.00650591  8.70767050  6.33256588
   9.75564066  7.74490516 22.76715106
   5.89133145  9.98692841  3.02958373
   1.97438465 12.19928675  6.26393993
   5.87931766  7.73843092 22.78387376
   1.99391736 10.00404409  3.02290020
   5.93975164 12.16764682  6.30271402
   3.93489572  8.88340470  1.46387624
   7.83249759 11.08702108  4.68761001
   7.60532321  6.69715256  8.37305863
   7.82602263  8.88875460  1.45882657
   3.95106959 11.06053853  4.67079039
   5.87824186 12.24397718  1.51614236
   5.94125357  7.75346489  4.62642599
   9.76762590  7.79999582  4.69091738
   1.99763379 12.24273721  1.48213669
   5.93177741  9.85878772  8.28585648
   1.95293679 10.01589244  8.25734465
   2.78966061  9.07607006  9.56652868
   5.12865135  8.87332573  9.64092303
   2.47951650  7.98622009 11.51675503
   3.65149931  6.84292413  9.56358430
   6.22029598  6.60256207  9.59329856
   4.71407776  4.99678758 10.48834265
   4.81615314  7.28857494 11.46434644
   1.28646103  6.54038097  9.83578689
   2.78175378  5.69278561 11.64707927
   2.49191340  4.46342080  9.67078859
   1.14304080 11.92606008 11.50574974
   0.32314316 11.21134792 11.42157275
   2.04844234 11.41081543 11.83123199
   0.88431701 12.69106292 12.23773633
   1.31552041 12.38925086 10.53520201
 


--------------------------------------------------------------------------------------------------------


 k-point  1 :   0.0000 0.0000 0.0000  plane waves:  121551

 maximum and minimum number of plane-waves per node :     30390    30383

 maximum number of plane-waves:    121551
 maximum index in each direction: 
   IXMAX=   28   IYMAX=   28   IZMAX=   41
   IXMIN=  -28   IYMIN=  -28   IZMIN=  -41


 real space projection operators:
  total allocation   :     118467.77 KBytes
  max/ min on nodes  :      29654.54      29576.99


 parallel 3D FFT for wavefunctions:
    minimum data exchange during FFTs selected (reduces bandwidth)
 parallel 3D FFT for charge:
    minimum data exchange during FFTs selected (reduces bandwidth)


 total amount of memory used by VASP MPI-rank0   666886. kBytes
=======================================================================

   base      :      30000. kBytes
   nonlr-proj:      58112. kBytes
   fftplans  :     194488. kBytes
   grid      :     174931. kBytes
   one-center:       3932. kBytes
   wavefun   :     205423. kBytes
 
     INWAV:  cpu time    0.0001: real time    0.0003
 Broyden mixing: mesh for mixing (old mesh)
   NGX = 57   NGY = 57   NGZ = 83
  (NGX  =240   NGY  =240   NGZ  =336)
  gives a total of 269667 points

 initial charge density was supplied:
 charge density of overlapping atoms calculated
 number of electron    1248.0000000 magnetization     157.0000000
 keeping initial charge density in first step


--------------------------------------------------------------------------------------------------------


 Maximum index for non-local projection operator         1993
 Maximum index for augmentation-charges        13161 (set IRDMAX)


--------------------------------------------------------------------------------------------------------


 First call to EWALD:  gamma=   0.105
 Maximum number of real-space cells 3x 3x 2
 Maximum number of reciprocal cells 3x 3x 4

    FEWALD:  cpu time    0.0082: real time    0.0082


--------------------------------------- Iteration      1(   1)  ---------------------------------------


vdW kernel read from vdw_kernel.bindat
  0.0000  0.2424  0.5071  0.7962  1.1119  1.4567  1.8333  2.2446  2.6937  3.1842
  3.7199  4.3049  4.9438  5.6415  6.4036  7.2358  8.1446  9.1372 10.2212 11.4050
 12.6979 14.1099 15.6519 17.3360 19.1751 21.1837 23.3773 25.7729 28.3892 31.2465
 34.3669 37.7748 41.4965 45.5611 50.0000
 
    POTLOK:  cpu time   43.1587: real time   43.2968
    SETDIJ:  cpu time    1.8403: real time    1.8447
     EDDAV:  cpu time  106.9095: real time  107.2890
       DOS:  cpu time    0.0010: real time    0.0010
    --------------------------------------------
      LOOP:  cpu time  151.9096: real time  152.4315

 eigenvalue-minimisations  :  3344
 total energy-change (2. order) : 0.2021685E+05  (-0.4805990E+05)
 number of electron    1248.0000000 magnetization     157.0000000
 augmentation part     1248.0000000 magnetization     157.0000000

 Free energy of the ion-electron system (eV)
  ---------------------------------------------------
  alpha Z        PSCENC =      3033.86958495
  Ewald energy   TEWEN  =    281447.79476968
  -Hartree energ DENC   =   -375342.41610882
  -exchange      EXHF   =         0.00000000
  -V(xc)+E(xc)   XCENC  =      3189.99265883
  PAW double counting   =     68565.16298528   -68156.09344703
  entropy T*S    EENTRO =        -0.21649545
  eigenvalues    EBANDS =      4130.48528728
  atomic energy  EATOM  =    103348.27171315
  Solvation  Ediel_sol  =         0.00000000
  ---------------------------------------------------
  free energy    TOTEN  =     20216.85094788 eV

  energy without entropy =    20217.06744333  energy(sigma->0) =    20216.95919561


--------------------------------------------------------------------------------------------------------




--------------------------------------- Iteration      1(   2)  ---------------------------------------


     EDDAV:  cpu time  115.0034: real time  115.4737
       DOS:  cpu time    0.0012: real time    0.0012
    --------------------------------------------
      LOOP:  cpu time  115.0046: real time  115.4749

 eigenvalue-minimisations  :  3672
 total energy-change (2. order) :-0.1265422E+05  (-0.1098512E+05)
 number of electron    1248.0000000 magnetization     157.0000000
 augmentation part     1248.0000000 magnetization     157.0000000

 Free energy of the ion-electron system (eV)
  ---------------------------------------------------
  alpha Z        PSCENC =      3033.86958495
  Ewald energy   TEWEN  =    281447.79476968
  -Hartree energ DENC   =   -375342.41610882
  -exchange      EXHF   =         0.00000000
  -V(xc)+E(xc)   XCENC  =      3189.99265883
  PAW double counting   =     68565.16298528   -68156.09344703
  entropy T*S    EENTRO =        -1.06389230
  eigenvalues    EBANDS =     -8522.88883098
  atomic energy  EATOM  =    103348.27171315
  Solvation  Ediel_sol  =         0.00000000
  ---------------------------------------------------
  free energy    TOTEN  =      7562.62943276 eV

  energy without entropy =     7563.69332507  energy(sigma->0) =     7563.16137891


--------------------------------------------------------------------------------------------------------




--------------------------------------- Iteration      1(   3)  ---------------------------------------


     EDDAV:  cpu time  133.1564: real time  133.5249
       DOS:  cpu time    0.0013: real time    0.0013
    --------------------------------------------
      LOOP:  cpu time  133.1577: real time  133.5262

 eigenvalue-minimisations  :  4400
 total energy-change (2. order) :-0.6808588E+04  (-0.6491971E+04)
 number of electron    1248.0000000 magnetization     157.0000000
 augmentation part     1248.0000000 magnetization     157.0000000

 Free energy of the ion-electron system (eV)
  ---------------------------------------------------
  alpha Z        PSCENC =      3033.86958495
  Ewald energy   TEWEN  =    281447.79476968
  -Hartree energ DENC   =   -375342.41610882
  -exchange      EXHF   =         0.00000000
  -V(xc)+E(xc)   XCENC  =      3189.99265883
  PAW double counting   =     68565.16298528   -68156.09344703
  entropy T*S    EENTRO =        -1.79103495
  eigenvalues    EBANDS =    -15330.75002988
  atomic energy  EATOM  =    103348.27171315
  Solvation  Ediel_sol  =         0.00000000
  ---------------------------------------------------
  free energy    TOTEN  =       754.04109121 eV

  energy without entropy =      755.83212616  energy(sigma->0) =      754.93660869


--------------------------------------------------------------------------------------------------------




--------------------------------------- Iteration      1(   4)  ---------------------------------------


     EDDAV:  cpu time  138.0598: real time  138.5198
       DOS:  cpu time    0.0012: real time    0.0012
    --------------------------------------------
      LOOP:  cpu time  138.0610: real time  138.5211

 eigenvalue-minimisations  :  4592
 total energy-change (2. order) :-0.1918231E+04  (-0.1819389E+04)
 number of electron    1248.0000000 magnetization     157.0000000
 augmentation part     1248.0000000 magnetization     157.0000000

 Free energy of the ion-electron system (eV)
  ---------------------------------------------------
  alpha Z        PSCENC =      3033.86958495
  Ewald energy   TEWEN  =    281447.79476968
  -Hartree energ DENC   =   -375342.41610882
  -exchange      EXHF   =         0.00000000
  -V(xc)+E(xc)   XCENC  =      3189.99265883
  PAW double counting   =     68565.16298528   -68156.09344703
  entropy T*S    EENTRO =        -0.34690171
  eigenvalues    EBANDS =    -17250.42509863
  atomic energy  EATOM  =    103348.27171315
  Solvation  Ediel_sol  =         0.00000000
  ---------------------------------------------------
  free energy    TOTEN  =     -1164.18984429 eV

  energy without entropy =    -1163.84294258  energy(sigma->0) =    -1164.01639344


--------------------------------------------------------------------------------------------------------




--------------------------------------- Iteration      1(   5)  ---------------------------------------


     EDDAV:  cpu time  160.1119: real time  160.5475
       DOS:  cpu time    0.0011: real time    0.0012
    CHARGE:  cpu time    8.5346: real time    8.5550
    MIXING:  cpu time    0.0510: real time    0.0511
    --------------------------------------------
      LOOP:  cpu time  168.6987: real time  169.1548

 eigenvalue-minimisations  :  5496
 total energy-change (2. order) :-0.2078362E+03  (-0.2052053E+03)
 number of electron    1248.0000003 magnetization     143.1171053
 augmentation part       54.2124908 magnetization     130.7415320

 Broyden mixing:
  rms(total) = 0.12995E+02    rms(broyden)= 0.12993E+02
  rms(prec ) = 0.14097E+02
  weight for this iteration     100.00

 Free energy of the ion-electron system (eV)
  ---------------------------------------------------
  alpha Z        PSCENC =      3033.86958495
  Ewald energy   TEWEN  =    281447.79476968
  -Hartree energ DENC   =   -375342.41610882
  -exchange      EXHF   =         0.00000000
  -V(xc)+E(xc)   XCENC  =      3189.99265883
  PAW double counting   =     68565.16298528   -68156.09344703
  entropy T*S    EENTRO =        -0.38101734
  eigenvalues    EBANDS =    -17458.22717703
  atomic energy  EATOM  =    103348.27171315
  Solvation  Ediel_sol  =         0.00000000
  ---------------------------------------------------
  free energy    TOTEN  =     -1372.02603832 eV

  energy without entropy =    -1371.64502098  energy(sigma->0) =    -1371.83552965


--------------------------------------------------------------------------------------------------------




--------------------------------------- Iteration      1(   6)  ---------------------------------------


    POTLOK:  cpu time   42.3540: real time   42.8210
    SETDIJ:  cpu time    1.8433: real time    1.8478
     EDDAV:  cpu time  139.9742: real time  140.9072
       DOS:  cpu time    0.0012: real time    0.0012
    CHARGE:  cpu time    9.0342: real time    9.0559
    MIXING:  cpu time    0.0372: real time    0.0373
    --------------------------------------------
      LOOP:  cpu time  193.2441: real time  194.6704

 eigenvalue-minimisations  :  4664
 total energy-change (2. order) : 0.3346477E+03  (-0.3696798E+03)
 number of electron    1248.0000010 magnetization     140.9626357
 augmentation part      141.9404731 magnetization     102.6106203

 Broyden mixing:
  rms(total) = 0.23955E+02    rms(broyden)= 0.23952E+02
  rms(prec ) = 0.29400E+02
  weight for this iteration     100.00

 eigenvalues of (default mixing * dielectric matrix)
  average eigenvalue GAMMA=   0.3377
  0.3377

 Free energy of the ion-electron system (eV)
  ---------------------------------------------------
  alpha Z        PSCENC =      3033.86958495
  Ewald energy   TEWEN  =    281447.79476968
  -Hartree energ DENC   =   -377770.76315343
  -exchange      EXHF   =         0.00000000
  -V(xc)+E(xc)   XCENC  =      3435.76358269
  PAW double counting   =     71561.10266521   -71050.49475508
  entropy T*S    EENTRO =        -1.42181508
  eigenvalues    EBANDS =    -15041.50094150
  atomic energy  EATOM  =    103348.27171315
  Solvation  Ediel_sol  =         0.00000000
  ---------------------------------------------------
  free energy    TOTEN  =     -1037.37834940 eV

  energy without entropy =    -1035.95653432  energy(sigma->0) =    -1036.66744186


--------------------------------------------------------------------------------------------------------




--------------------------------------- Iteration      1(   7)  ---------------------------------------


    POTLOK:  cpu time   42.6509: real time   42.7706
    SETDIJ:  cpu time    1.8695: real time    1.8740
     EDDAV:  cpu time  152.1957: real time  152.5985
       DOS:  cpu time    0.0011: real time    0.0011
    CHARGE:  cpu time    8.6637: real time    8.6844
    MIXING:  cpu time    0.0387: real time    0.0388
    --------------------------------------------
      LOOP:  cpu time  205.4197: real time  205.9675

 eigenvalue-minimisations  :  5160
 total energy-change (2. order) :-0.1400314E+03  (-0.9989484E+03)
 number of electron    1248.0000011 magnetization     139.5189349
 augmentation part      193.4502942 magnetization     118.0601858

 Broyden mixing:
  rms(total) = 0.33857E+02    rms(broyden)= 0.33857E+02
  rms(prec ) = 0.43877E+02
  weight for this iteration     100.00

 eigenvalues of (default mixing * dielectric matrix)
  average eigenvalue GAMMA=   0.2252
  0.3176  0.1328

 Free energy of the ion-electron system (eV)
  ---------------------------------------------------
  alpha Z        PSCENC =      3033.86958495
  Ewald energy   TEWEN  =    281447.79476968
  -Hartree energ DENC   =   -377999.18758135
  -exchange      EXHF   =         0.00000000
  -V(xc)+E(xc)   XCENC  =      3373.94288794
  PAW double counting   =     73173.36534734   -72805.43471304
  entropy T*S    EENTRO =        -0.66037895
  eigenvalues    EBANDS =    -14749.37136001
  atomic energy  EATOM  =    103348.27171315
  Solvation  Ediel_sol  =         0.00000000
  ---------------------------------------------------
  free energy    TOTEN  =     -1177.40973029 eV

  energy without entropy =    -1176.74935134  energy(sigma->0) =    -1177.07954082


--------------------------------------------------------------------------------------------------------




--------------------------------------- Iteration      1(   8)  ---------------------------------------


    POTLOK:  cpu time   42.4229: real time   42.5433
    SETDIJ:  cpu time    1.8410: real time    1.8454
     EDDAV:  cpu time  134.6040: real time  134.9408
       DOS:  cpu time    0.0011: real time    0.0011
    CHARGE:  cpu time    8.3733: real time    8.3987
    MIXING:  cpu time    0.0426: real time    0.0427
    --------------------------------------------
      LOOP:  cpu time  187.2849: real time  187.7721

 eigenvalue-minimisations  :  4448
 total energy-change (2. order) : 0.2176963E+03  (-0.4733035E+03)
 number of electron    1248.0000005 magnetization     133.5248705
 augmentation part       66.3941973 magnetization     128.6859975

 Broyden mixing:
  rms(total) = 0.85084E+01    rms(broyden)= 0.85056E+01
  rms(prec ) = 0.92770E+01
  weight for this iteration     100.00

 eigenvalues of (default mixing * dielectric matrix)
  average eigenvalue GAMMA=   0.2753
  0.4565  0.2486  0.1207

 Free energy of the ion-electron system (eV)
  ---------------------------------------------------
  alpha Z        PSCENC =      3033.86958495
  Ewald energy   TEWEN  =    281447.79476968
  -Hartree energ DENC   =   -377890.70715443
  -exchange      EXHF   =         0.00000000
  -V(xc)+E(xc)   XCENC  =      3356.71805498
  PAW double counting   =     74138.87032553   -73839.42344001
  entropy T*S    EENTRO =        -0.04985586
  eigenvalues    EBANDS =    -14555.05738656
  atomic energy  EATOM  =    103348.27171315
  Solvation  Ediel_sol  =         0.00000000
  ---------------------------------------------------
  free energy    TOTEN  =      -959.71338856 eV

  energy without entropy =     -959.66353270  energy(sigma->0) =     -959.68846063


--------------------------------------------------------------------------------------------------------




--------------------------------------- Iteration      1(   9)  ---------------------------------------


    POTLOK:  cpu time   42.4846: real time   42.6007
    SETDIJ:  cpu time    1.8426: real time    1.8470
     EDDAV:  cpu time  152.0805: real time  152.5754
       DOS:  cpu time    0.0012: real time    0.0012
    CHARGE:  cpu time    8.7865: real time    8.8074
    MIXING:  cpu time    0.0448: real time    0.0449
    --------------------------------------------
      LOOP:  cpu time  205.2403: real time  205.8766

 eigenvalue-minimisations  :  5160
 total energy-change (2. order) :-0.4206507E+02  (-0.2219351E+03)
 number of electron    1248.0000003 magnetization     127.3163035
 augmentation part       45.9918867 magnetization     119.3673804

 Broyden mixing:
  rms(total) = 0.68380E+01    rms(broyden)= 0.68362E+01
  rms(prec ) = 0.74275E+01
  weight for this iteration     100.00

 eigenvalues of (default mixing * dielectric matrix)
  average eigenvalue GAMMA=   0.3641
  0.7552  0.2912  0.2912  0.1185

 Free energy of the ion-electron system (eV)
  ---------------------------------------------------
  alpha Z        PSCENC =      3033.86958495
  Ewald energy   TEWEN  =    281447.79476968
  -Hartree energ DENC   =   -377843.75530412
  -exchange      EXHF   =         0.00000000
  -V(xc)+E(xc)   XCENC  =      3379.59570288
  PAW double counting   =     74654.24836345   -74402.91124739
  entropy T*S    EENTRO =        -0.29663982
  eigenvalues    EBANDS =    -14618.59540369
  atomic energy  EATOM  =    103348.27171315
  Solvation  Ediel_sol  =         0.00000000
  ---------------------------------------------------
  free energy    TOTEN  =     -1001.77846091 eV

  energy without entropy =    -1001.48182108  energy(sigma->0) =    -1001.63014100


--------------------------------------------------------------------------------------------------------




--------------------------------------- Iteration      1(  10)  ---------------------------------------


    POTLOK:  cpu time   42.4163: real time   42.7064
    SETDIJ:  cpu time    1.8610: real time    1.8654
     EDDAV:  cpu time  166.4115: real time  166.8417
       DOS:  cpu time    0.0013: real time    0.0014
    CHARGE:  cpu time    8.9965: real time    9.0223
    MIXING:  cpu time    0.0443: real time    0.0445
    --------------------------------------------
      LOOP:  cpu time  219.7311: real time  220.4817

 eigenvalue-minimisations  :  5712
 total energy-change (2. order) :-0.2048233E+02  (-0.4156909E+02)
 number of electron    1248.0000003 magnetization     123.9336742
 augmentation part       54.2218038 magnetization     112.8090177

 Broyden mixing:
  rms(total) = 0.15246E+02    rms(broyden)= 0.15246E+02
  rms(prec ) = 0.17823E+02
  weight for this iteration     100.00

 eigenvalues of (default mixing * dielectric matrix)
  average eigenvalue GAMMA=   0.3200
  0.8251  0.2934  0.2934  0.1183  0.0700

 Free energy of the ion-electron system (eV)
  ---------------------------------------------------
  alpha Z        PSCENC =      3033.86958495
  Ewald energy   TEWEN  =    281447.79476968
  -Hartree energ DENC   =   -378047.31392842
  -exchange      EXHF   =         0.00000000
  -V(xc)+E(xc)   XCENC  =      3401.93389025
  PAW double counting   =     75192.16512692   -74923.27436241
  entropy T*S    EENTRO =        -0.87834469
  eigenvalues    EBANDS =    -14474.82924220
  atomic energy  EATOM  =    103348.27171315
  Solvation  Ediel_sol  =         0.00000000
  ---------------------------------------------------
  free energy    TOTEN  =     -1022.26079277 eV

  energy without entropy =    -1021.38244808  energy(sigma->0) =    -1021.82162043


--------------------------------------------------------------------------------------------------------




--------------------------------------- Iteration      1(  11)  ---------------------------------------


    POTLOK:  cpu time   42.4689: real time   42.6020
    SETDIJ:  cpu time    1.8657: real time    1.8739
     EDDAV:  cpu time  142.1154: real time  142.4819
       DOS:  cpu time    0.0012: real time    0.0012
    CHARGE:  cpu time    8.3574: real time    8.3774
    MIXING:  cpu time    0.0449: real time    0.0450
    --------------------------------------------
      LOOP:  cpu time  194.8535: real time  195.3816

 eigenvalue-minimisations  :  4744
 total energy-change (2. order) : 0.5269010E+02  (-0.8839652E+01)
 number of electron    1248.0000003 magnetization     116.6239994
 augmentation part       49.8041639 magnetization     110.3011984

 Broyden mixing:
  rms(total) = 0.67114E+01    rms(broyden)= 0.67110E+01
  rms(prec ) = 0.73241E+01
  weight for this iteration     100.00

 eigenvalues of (default mixing * dielectric matrix)
  average eigenvalue GAMMA=   0.3617
  1.0331  0.3348  0.3348  0.2695  0.1147  0.0830

 Free energy of the ion-electron system (eV)
  ---------------------------------------------------
  alpha Z        PSCENC =      3033.86958495
  Ewald energy   TEWEN  =    281447.79476968
  -Hartree energ DENC   =   -378429.28263692
  -exchange      EXHF   =         0.00000000
  -V(xc)+E(xc)   XCENC  =      3410.98422198
  PAW double counting   =     75544.42071324   -75266.04619630
  entropy T*S    EENTRO =        -0.06730071
  eigenvalues    EBANDS =    -14059.51555892
  atomic energy  EATOM  =    103348.27171315
  Solvation  Ediel_sol  =         0.00000000
  ---------------------------------------------------
  free energy    TOTEN  =      -969.57068984 eV

  energy without entropy =     -969.50338912  energy(sigma->0) =     -969.53703948


--------------------------------------------------------------------------------------------------------




--------------------------------------- Iteration      1(  12)  ---------------------------------------


    POTLOK:  cpu time   42.4534: real time   42.5831
    SETDIJ:  cpu time    1.8455: real time    1.8499
     EDDAV:  cpu time  132.6598: real time  133.0082
       DOS:  cpu time    0.0012: real time    0.0012
    CHARGE:  cpu time    8.5642: real time    8.5850
    MIXING:  cpu time    0.0473: real time    0.0474
    --------------------------------------------
      LOOP:  cpu time  185.5715: real time  186.0749

 eigenvalue-minimisations  :  4384
 total energy-change (2. order) : 0.6437254E+02  (-0.1255706E+02)
 number of electron    1248.0000003 magnetization     110.9917562
 augmentation part       50.2767671 magnetization     101.7255401

 Broyden mixing:
[...]
 DYNMAT: Loop at J=         120
 DYNMAT: Before DIRKAR
 DYNMAT: After DIRKAR
       3.951378983065543      11.133726465456295      22.785992206913484
 DYNMAT: Loop at J=         121
 DYNMAT: Before DIRKAR
 DYNMAT: After DIRKAR
       3.956777522826543       6.645949339841972       3.036735492701759
 DYNMAT: Loop at J=         122
 DYNMAT: Before DIRKAR
 DYNMAT: After DIRKAR
       7.833986459043033       8.866401425184263       6.310925282951625
 DYNMAT: Loop at J=         123
 DYNMAT: Before DIRKAR
 DYNMAT: After DIRKAR
       7.804536993415555      11.131230171177910      22.768992936909981
 DYNMAT: Loop at J=         124
 DYNMAT: Before DIRKAR
 DYNMAT: After DIRKAR
       7.841994963054029       6.641404388365875       3.028304730097529
 DYNMAT: Loop at J=         125
 DYNMAT: Before DIRKAR
 DYNMAT: After DIRKAR
       4.006505912344306       8.707670496292186       6.332565875239138
 DYNMAT: Loop at J=         126
 DYNMAT: Before DIRKAR
 DYNMAT: After DIRKAR
       9.755640662300101       7.744905161214152      22.767151061125379
 DYNMAT: Loop at J=         127
 DYNMAT: Before DIRKAR
 DYNMAT: After DIRKAR
       5.891331451495108       9.986928408390538       3.029583733337591
 DYNMAT: Loop at J=         128
 DYNMAT: Before DIRKAR
 DYNMAT: After DIRKAR
       1.974384654258471      12.199286753118010       6.263939932854098
 DYNMAT: Loop at J=         129
 DYNMAT: Before DIRKAR
 DYNMAT: After DIRKAR
       5.879317658857866       7.738430924382646      22.783873761685626
 DYNMAT: Loop at J=         130
 DYNMAT: Before DIRKAR
 DYNMAT: After DIRKAR
       1.993917360811391      10.004044092552768       3.022900195953452
 DYNMAT: Loop at J=         131
 DYNMAT: Before DIRKAR
 DYNMAT: After DIRKAR
       5.939751644395742      12.167646816297676       6.302714017824114
 DYNMAT: Loop at J=         132
 DYNMAT: Before DIRKAR
 DYNMAT: After DIRKAR
       3.934895716805406       8.883404697569604       1.463876241826824
 DYNMAT: Loop at J=         133
 DYNMAT: Before DIRKAR
 DYNMAT: After DIRKAR
       7.832497592664610      11.087021084213152       4.687610006183542
 DYNMAT: Loop at J=         134
 DYNMAT: Before DIRKAR
 DYNMAT: After DIRKAR
       7.605323207174530       6.697152562403480       8.373058633118783
 DYNMAT: Loop at J=         135
 DYNMAT: Before DIRKAR
 DYNMAT: After DIRKAR
       7.826022634175511       8.888754598148678       1.458826572640829
 DYNMAT: Loop at J=         136
 DYNMAT: Before DIRKAR
 DYNMAT: After DIRKAR
       3.951069586701439      11.060538533729629       4.670790393075751
 DYNMAT: Loop at J=         137
 DYNMAT: Before DIRKAR
 DYNMAT: After DIRKAR
       5.878241859407328      12.243977175185957       1.516142364318435
 DYNMAT: Loop at J=         138
 DYNMAT: Before DIRKAR
 DYNMAT: After DIRKAR
       5.941253565292895       7.753464890889607       4.626425993398887
 DYNMAT: Loop at J=         139
 DYNMAT: Before DIRKAR
 DYNMAT: After DIRKAR
       9.767625898643610       7.799995819579921       4.690917378990699
 DYNMAT: Loop at J=         140
 DYNMAT: Before DIRKAR
 DYNMAT: After DIRKAR
       1.997633794119809      12.242737208669936       1.482136690752026
 DYNMAT: Loop at J=         141
 DYNMAT: Before DIRKAR
 DYNMAT: After DIRKAR
       5.931777410406164       9.858787715905814       8.285856477776454
 DYNMAT: Loop at J=         142
 DYNMAT: Before DIRKAR
 DYNMAT: After DIRKAR
       1.952936791243425      10.015892438504961       8.257344646541258
 DYNMAT: Loop at J=         143
 DYNMAT: Before DIRKAR
 DYNMAT: After DIRKAR
       2.789660612030735       9.076070061669066       9.566528676284818
 DYNMAT: Loop at J=         144
 DYNMAT: Before DIRKAR
 DYNMAT: After DIRKAR
       5.128651351397460       8.873325731390027       9.640923032786931
 DYNMAT: Loop at J=         145
 DYNMAT: Before DIRKAR
 DYNMAT: After DIRKAR
       2.479516502751956       7.986220092774762      11.516755025583327
 DYNMAT: Loop at J=         146
 DYNMAT: Before DIRKAR
 DYNMAT: After DIRKAR
       3.651499313692786       6.842924132924737       9.563584297274463
 DYNMAT: Loop at J=         147
 DYNMAT: Before DIRKAR
 DYNMAT: After DIRKAR
       6.220295981868260       6.602562067369325       9.593298564233502
 DYNMAT: Loop at J=         148
 DYNMAT: Before DIRKAR
 DYNMAT: After DIRKAR
       4.714077760054342       4.996787579826401      10.488342653684334
 DYNMAT: Loop at J=         149
 DYNMAT: Before DIRKAR
 DYNMAT: After DIRKAR
       4.816153136874944       7.288574944228504      11.464346439245213
 DYNMAT: Loop at J=         150
 DYNMAT: Before DIRKAR
 DYNMAT: After DIRKAR
       1.286461030434628       6.540380973178499       9.835786888544929
 DYNMAT: Loop at J=         151
 DYNMAT: Before DIRKAR
 DYNMAT: After DIRKAR
       2.781753775108064       5.692785607362269      11.647079265249680
 DYNMAT: Loop at J=         152
 DYNMAT: Before DIRKAR
 DYNMAT: After DIRKAR
       2.491913404260230       4.463420799259276       9.670788592067774
 DYNMAT: Loop at J=         153
 DYNMAT: Before DIRKAR
 DYNMAT: After DIRKAR
       1.143040800487568      11.926060079364547      11.505749739387644
 DYNMAT: Loop at J=         154
 DYNMAT: Before DIRKAR
 DYNMAT: After DIRKAR
       0.324143156455557      11.211347918950441      11.421572748543440
 DYNMAT: Loop at J=         155
 DYNMAT: Before DIRKAR
 DYNMAT: After DIRKAR
       2.048442336078076      11.410815430849365      11.831231994832441
 DYNMAT: Loop at J=         156
 DYNMAT: Before DIRKAR
 DYNMAT: After DIRKAR
       0.884317010023000      12.691062921736680      12.237736331009176
 DYNMAT: Loop at J=         157
 DYNMAT: Before DIRKAR
 DYNMAT: After DIRKAR
       1.315520410634607      12.389250855862700      10.535202010103129
 HIPREC TOTAL-FORCE (eV/A)    
 -----------------------------------------------------------------------------------
      -0.002117708387753       0.000181753487428      -0.002014118909435
       0.003105345714770      -0.013181271436624      -0.009108907021608
       0.007250848467399       0.009403420295651      -0.005632253859127
      -0.000648174986530       0.001951025376065      -0.001202013038959
      -0.018699528724455       0.021431046200444       0.002174287565129
      -0.006251159834229      -0.011531578291505      -0.037633723783802
      -0.001915112839437       0.002936473156540      -0.000798699995048
       0.002498401141776       0.006568305888930       0.003324995280355
       0.013341149328181       0.022282541811114       0.045760527013304
      -0.000529115398632      -0.002588090401586      -0.000643077005134
      -0.010555874204980       0.004811650735664      -0.000240231414433
       0.007958489413494      -0.014498448229979      -0.053620686164977
      -0.000518894702267      -0.002681079256861       0.000345364070462
       0.000728010919548       0.003146471940981       0.001905944129686
       0.016837661487194      -0.012062261979944      -0.041357060119854
       0.000283489084039      -0.001118881917759      -0.002678662944024
       0.005781443423958       0.000990641391183       0.002425191383868
       0.004214733746498       0.008180322120680       0.001240263566860
       0.001673288858105       0.000127183593276      -0.001288918757912
       0.009886922515577       0.011920298570074      -0.021200899179967
      -0.000564172364384      -0.009688031452792       0.001497762960860
      -0.001041226367762      -0.000692278871802      -0.000606321893684
       0.004305326387504      -0.003843108655310       0.001491874161329
      -0.003558598712257       0.002260541565870      -0.001691838473020
       0.001536158175805      -0.001262298130147       0.002381232783921
       0.011813647036703      -0.010718378504804       0.031108397843808
       0.007220295182504       0.000753404295741       0.003184057140036
       0.000047260010753      -0.001182168060191       0.000446141838544
       0.001047695076823      -0.010780303430392      -0.002624494240592
       0.003927285113302       0.007332009329134      -0.008648852531231
       0.002720163098409      -0.002344286812363       0.001428527341072
      -0.002863591621861      -0.009887932974087      -0.002792185939551
       0.042730264870560      -0.031355966189319       0.038262270426885
       0.000020119396642       0.000982826491636       0.003743719864452
       0.004617102769192      -0.002297902311719       0.000276465032296
      -0.002039879210640      -0.029219970158971      -0.005435703240764
      -0.001346019474918       0.000275381808146       0.000520195711081
       0.001849446024824       0.001807132259349       0.003736578283876
      -0.038334003839679       0.033733500521171      -0.042049170153075
      -0.002697141555581      -0.002709407475571       0.003781574915450
       0.003247401683513       0.000375139407659       0.004198833433133
      -0.009518381889990       0.025753641616735      -0.008870949358556
      -0.000005303780755       0.000164425749909       0.001891777878891
      -0.004114926118619      -0.005045391503557      -0.007800346833017
       0.002010755717543       0.006371829292448      -0.005564623339179
       0.002190180528565       0.001068598169878      -0.000636876673926
      -0.016394186059553      -0.008545569206038       0.009910881528409
       0.000636011596375       0.011582053804491       0.002927536958854
       0.001014117931815      -0.016315231709364       0.001595782185334
       0.035738427318150      -0.058543890267605      -0.014601091321349
      -0.012538141648018       0.077412585698549      -0.011958334425406
      -0.009920468801468       0.000936434708370      -0.000081305488264
       0.001706575637297      -0.010376687136697      -0.004475698481260
       0.010412094043312       0.023869874859019      -0.016461851249352
      -0.008982664816143       0.009209337671989      -0.010232310587719
       0.001643916086303      -0.026781096442277      -0.020799890702210
       0.022208197306835       0.003143706653966       0.002404800312286
       0.009866482370133       0.019648292072039      -0.027727422755557
       0.024406863305871       0.034509483209657      -0.028146489825125
       0.055984586297346      -0.013905928174203      -0.017959078166403
      -0.010591862001841      -0.012358013984006      -0.001104442137877
      -0.012516662280329       0.006033882409555       0.032001428303506
      -0.000766002677959       0.034270130728529      -0.014646535108597
       0.009516462502188      -0.004716927943237      -0.003481823790278
       0.002506320484601      -0.021122928193445      -0.019863595123773
      -0.017170833663478       0.021214597463836       0.009733747316655
      -0.002874716939745       0.004449575667966      -0.009769379356705
      -0.049264615484427      -0.007163039318710       0.011606132592695
       0.007324196429034      -0.001709940722459       0.009415725572730
      -0.009925417962186       0.017479123145209      -0.007118679066948
       0.023898213563654       0.027955807746058       0.002370629655317
       0.016067075503071       0.041348620649597       0.016193344655683
      -0.001573331375179      -0.001136875604724       0.008531067378545
       0.011355638235671      -0.002218899903706      -0.012705639931115
       0.004222481943163      -0.021849220255043       0.016265941080333
       0.000919560417810       0.009393882052454       0.015522819639553
      -0.008623451644489      -0.030799398935181       0.014537808267574
       0.016143002173821       0.074952075209519      -0.007546601436426
       0.005750690177898       0.006881827179383      -0.004591069666879
       0.046776194423300      -0.007342354913159      -0.002269919847113
      -0.020096050109888      -0.062523690793278       0.034962929321524
       0.005063907284778       0.003395715449974      -0.004180696626612
      -0.022995805947578       0.007351557487183       0.030299974432452
      -0.032959351560834      -0.027170120265675       0.009975641488234
      -0.004014977438963       0.008327342420928       0.006451178459259
       0.023765633558637       0.013280420391395       0.009681060086769
      -0.003185324493676       0.008833206284722       0.002396678144137
      -0.013258701336085      -0.004677859730042       0.004690970284906
      -0.022639377748302       0.027059778432455       0.011552423533665
       0.005407528472854       0.006135780934228       0.007556082284233
       0.009276451537348      -0.005782602740466      -0.021667098620655
      -0.000662609324025      -0.003677811531743      -0.030384508753787
      -0.001572867173103       0.011386475883862       0.002265646329781
      -0.016447829603818       0.049371746437877       0.009072682361822
      -0.015321703757356      -0.007828229407405       0.010975895662672
       0.027211015999786      -0.009019190053687       0.049877906806620
      -0.005934948223000      -0.001064108022805      -0.020628903108182
      -0.033572232684306       0.077229608459517      -0.010600845622475
       0.012394582824957      -0.009518976781684       0.023094910308193
      -0.012526490706202      -0.018971254941887      -0.017851398661434
       0.011060713031842      -0.003509824646184       0.012289472798221
       0.008532843062229       0.017334503390716       0.000386510114022
      -0.006094100595734       0.026498190358721       0.007506671198405
       0.000274856142495      -0.018019881956163       0.028899851807945
      -0.019572520093010       0.025285276767908      -0.021407618910632
      -0.013159957104451       0.001467617963284      -0.017364634363068
      -0.006574357436106      -0.048128849283884      -0.006824299896370
       0.038463840273230      -0.040641443216191       0.002332198359059
      -0.020846069486114      -0.025407790460158       0.000467661875996
       0.002955131642240      -0.016871589136636       0.013122444652609
       0.013184484829820      -0.039849634798830       0.011690562557494
       0.011946288582412      -0.005018262744140       0.009572206248037
      -0.059374046306624      -0.069741983166351      -0.000210589894135
      -0.013624524063944       0.018385117494599      -0.070641973944204
      -0.017603481320247      -0.016427694967597       0.009186182669216
      -0.009902575990869       0.045883188654974       0.028264342720531
       0.019347462489274      -0.021735129544843       0.051130091563405
       0.002395022339428      -0.021637412735319      -0.003443057251455
      -0.019398768622871       0.027237675230746      -0.000802460967389
      -0.016614832551146      -0.001636883998486       0.006339490905474
      -0.005572507856436      -0.028628976212501      -0.010411715878464
      -0.003874435719494      -0.022875339143725       0.000782117211998
      -0.016730381324891       0.013664656689807       0.043327836122736
      -0.003098420472429       0.022147384450386      -0.018787101733428
       0.002121937653749      -0.009238433187045      -0.018021540953413
       0.007188562705238      -0.015675752694939       0.008085321971241
       0.005597359848256       0.010442124051528      -0.003695981854361
      -0.029589270068892      -0.014809111294053       0.012775431013036
      -0.015381027284236       0.015377548642795      -0.015148022109817
       0.010194844501590       0.009190153338245      -0.031391994438569
       0.013345029712637       0.007059658135628      -0.017691495303904
       0.009921164570471      -0.007559361831309       0.032907142678316
       0.002396402665361      -0.011379891585614      -0.004717296097315
       0.034837237054554      -0.027663745411717      -0.003060569379381
       0.042233367206551      -0.028441051486675      -0.008016585371387
      -0.017994536187616       0.008040419236772       0.013940929516304
       0.002391178941250       0.008332200495081      -0.011882704558517
      -0.021077917411692       0.004738788693284      -0.000333596736969
       0.013533882175733      -0.004981051525614       0.011906916609764
       0.011401391760610      -0.006362236731755       0.024745097668778
       0.020671932870697      -0.005581002944829      -0.012206156083540
      -0.002873139308114      -0.005707219699387       0.021707331513351
      -0.004580812197156       0.001474695449256      -0.001562734570933
      -0.003659618641385       0.006085009435044      -0.006900736115357
      -0.004984724186916       0.002550759905903       0.002129268721630
      -0.003792440272499      -0.006713869094514       0.019599603632326
      -0.003282975428072       0.007226227837937      -0.002122939604238
      -0.006195413297609       0.001971980522062      -0.002636002301124
      -0.003730093039080      -0.000746896113269      -0.004142833574138
      -0.003527227724148       0.000685632316347       0.005879784794205
      -0.008998344874880      -0.006085169989496      -0.007440094363740
       0.009118159705627      -0.002592328530375      -0.000809527717081
       0.023183812397036       0.010208105589301       0.002990174393575
      -0.020400057770785      -0.011402051419789      -0.002521887452624
      -0.002172969991805       0.008983840402678       0.000467706243319
      -0.007720106269420       0.000101336808817       0.002351134143231
      -0.004704926386172       0.007034172525350       0.003410284876667
DYMAT: ------------------------------
DYMAT: DEGREE OF FREEDOM 153  1  1
DYMAT: ------------------------------
DYMAT: DEGREE OF FREEDOM 153  2  2
DYMAT: ------------------------------
DYMAT: DEGREE OF FREEDOM 153  3  3
DYMAT: ------------------------------
DYMAT: DEGREE OF FREEDOM 154  1  4
DYMAT: ------------------------------
DYMAT: DEGREE OF FREEDOM 154  2  5
DYMAT: ------------------------------
DYMAT: DEGREE OF FREEDOM 154  3  6
DYMAT: ------------------------------
DYMAT: DEGREE OF FREEDOM 155  1  7
DYMAT: ------------------------------
DYMAT: DEGREE OF FREEDOM 155  2  8
DYMAT: ------------------------------
DYMAT: DEGREE OF FREEDOM 155  3  9
DYMAT: ------------------------------
DYMAT: DEGREE OF FREEDOM 156  1 10
DYMAT: ------------------------------
DYMAT: DEGREE OF FREEDOM 156  2 11
DYMAT: ------------------------------
DYMAT: DEGREE OF FREEDOM 156  3 12
DYMAT: ------------------------------
DYMAT: DEGREE OF FREEDOM 157  1 13
DYMAT: ------------------------------
DYMAT: DEGREE OF FREEDOM 157  2 14
DYMAT: ------------------------------
DYMAT: DEGREE OF FREEDOM 157  3 15
DYMAT: LEAVING
 stress matrix after NEB project (eV)
    -41.64857      0.04257     -0.89268
      0.04257    -42.09967      0.68567
     -0.89268      0.68567     -5.29126
  FORCES: max atom, RMS     0.091593    0.031636
  FORCE total and by dimension    0.396403    0.077413
  Stress total and by dimension   59.477062   42.099670


--------------------------------------------------------------------------------------------------------


  
 reached required accuracy - stopping structural energy minimisation
     LOOP+:  cpu time  854.3301: real time  856.7402
    4ORBIT:  cpu time    0.0000: real time    0.0000

 total amount of memory used by VASP MPI-rank0   666886. kBytes
=======================================================================

   base      :      30000. kBytes
   nonlr-proj:      58112. kBytes
   fftplans  :     194488. kBytes
   grid      :     174931. kBytes
   one-center:       3932. kBytes
   wavefun   :     205423. kBytes
 
  
  
 General timing and accounting informations for this job:
 ========================================================
  
                  Total CPU time used (sec):    55271.004
                            User time (sec):    54031.457
                          System time (sec):     1239.548
                         Elapsed time (sec):    55466.751
  
                   Maximum memory used (kb):     1687652.
                   Average memory used (kb):           0.
  
                          Minor page faults:      8303916
                          Major page faults:           36
                 Voluntary context switches:         3293
