<?xml version="1.0" encoding="ISO-8859-1"?>
<modeling>
 <generator>
  <i name="program" type="string">vasp </i>
  <i name="version" type="string">5.4.4.18Apr17-6-g9f103f2a35  </i>
  <i name="subversion" type="string">(build Dec 31 2018 11:41:54) complex            parallel </i>
  <i name="platform" type="string">LinuxIFC </i>
  <i name="date" type="string">2020 05 12 </i>
  <i name="time" type="string">14:59:52 </i>
 </generator>
 <incar>
  <i type="string" name="SYSTEM"> CeO2</i>
  <i type="int" name="ISTART">     0</i>
  <i type="string" name="PREC">acc</i>
  <i type="string" name="ALGO"> normal</i>
  <i type="int" name="NSIM">     4</i>
  <i type="logical" name="ADDGRID"> T  </i>
  <i type="int" name="ISPIN">     2</i>
  <i type="int" name="ICHARG">     2</i>
  <i type="int" name="NELM">   100</i>
  <i type="int" name="IBRION">     3</i>
  <i name="EDIFF">      0.00010000</i>
  <i name="EDIFFG">      0.00100000</i>
  <i type="int" name="NSW">    16</i>
  <i type="int" name="ISIF">     2</i>
  <i name="ENCUT">    500.00000000</i>
  <i name="POTIM">      0.00000000</i>
  <i type="string" name="LREAL"> Auto</i>
  <i type="int" name="ISMEAR">     0</i>
  <i name="SIGMA">      0.10000000</i>
  <i type="logical" name="LCORR"> T  </i>
  <i type="int" name="LMAXMIX">     6</i>
  <i type="logical" name="LWAVE"> F  </i>
  <i type="logical" name="LCHARG"> F  </i>
  <i type="logical" name="LBEEFENS"> T  </i>
  <v type="int" name="KPOINT_BSE">    -1     0     0     0</v>
  <i type="int" name="NELM">   100</i>
  <i type="string" name="GGA">BF</i>
  <i type="logical" name="LUSE_VDW"> T  </i>
  <i name="Zab_VDW">     -1.88670000</i>
  <i type="logical" name="LDAU"> T  </i>
  <v type="int" name="LDAUTYPE">     2</v>
  <v type="int" name="LDAUL">     3    -1    -1    -1    -1</v>
  <v name="LDAUU">      5.00000000      0.00000000      0.00000000      0.00000000      0.00000000</v>
  <v name="LDAUJ">      0.00000000      0.00000000      0.00000000      0.00000000      0.00000000</v>
  <i type="int" name="IDIPOL">     3</i>
 </incar>
 <structure name="primitive_cell" >
  <crystal>
   <varray name="basis" >
    <v>      15.52620029       0.00000000       0.00000000 </v>
    <v>      -7.76321928      13.44600078       0.00000000 </v>
    <v>       0.00000000       0.00000000      22.92320061 </v>
   </varray>
   <i name="volume">   4785.56888143 </i>
   <varray name="rec_basis" >
    <v>       0.06440726       0.03718635       0.00000000 </v>
    <v>       0.00000000       0.07437156       0.00000000 </v>
    <v>       0.00000000       0.00000000       0.04362393 </v>
   </varray>
  </crystal>
  <varray name="positions" >
   <v>       0.00003917      -0.00594099       0.03033624 </v>
   <v>       0.08335298      -0.08907457       0.06407164 </v>
   <v>      -0.16608975      -0.08939637       0.06614008 </v>
   <v>      -0.08380037       0.07681615      -0.00482105 </v>
   <v>       0.08276733       0.16041503       0.06609738 </v>
   <v>       0.00123828      -0.00596152       0.13455324 </v>
   <v>      -0.08340136      -0.17215309      -0.00672714 </v>
   <v>       0.16708635       0.07819813      -0.00542049 </v>
   <v>       0.24944105       0.24294864       0.03007226 </v>
   <v>      -0.24904841      -0.25551412       0.02872753 </v>
   <v>      -0.24966010      -0.00619199       0.03064963 </v>
   <v>      -0.00059401       0.24336840       0.03090695 </v>
   <v>       0.25007399      -0.00593683       0.02938641 </v>
   <v>       0.00109100      -0.25564945       0.02810917 </v>
   <v>      -0.16679448      -0.09149967       0.17027481 </v>
   <v>       0.08459922      -0.08951958       0.16978392 </v>
   <v>       0.08356700       0.15929873       0.17109050 </v>
   <v>       0.24826612       0.24283336       0.13379058 </v>
   <v>       0.00166427      -0.25556392       0.13162300 </v>
   <v>      -0.24917809      -0.25725659       0.13216234 </v>
   <v>       0.24961448      -0.00707797       0.13242391 </v>
   <v>      -0.33147988      -0.17196744      -0.00598557 </v>
   <v>      -0.16540701      -0.33892949       0.06363974 </v>
   <v>       0.16651264       0.32704763      -0.00533649 </v>
   <v>       0.33334377       0.16054846       0.06607804 </v>
   <v>      -0.16699145       0.16033780       0.06608422 </v>
   <v>      -0.00201890       0.24217736       0.13543751 </v>
   <v>       0.16682248      -0.17223803      -0.00728950 </v>
   <v>      -0.25004915      -0.00570850       0.13502226 </v>
   <v>      -0.08324447      -0.17544099       0.20449195 </v>
   <v>      -0.08325717       0.07368604       0.20685392 </v>
   <v>       0.17081398       0.07753043       0.20614371 </v>
   <v>      -0.16273032      -0.33831157       0.16664619 </v>
   <v>       0.33275360       0.15837075       0.17008906 </v>
   <v>      -0.16659622       0.16050958       0.17064895 </v>
   <v>       0.08177379       0.40885313       0.06583659 </v>
   <v>      -0.08364046       0.32605511      -0.00563308 </v>
   <v>      -0.41607519      -0.08948858       0.06465662 </v>
   <v>       0.33334884       0.40968382       0.06514741 </v>
   <v>      -0.41622277      -0.33932737       0.06386003 </v>
   <v>       0.08369646      -0.33931755       0.06353557 </v>
   <v>      -0.33318701       0.07763530      -0.00525614 </v>
   <v>       0.41716817       0.32683296      -0.00553023 </v>
   <v>       0.41723015       0.07783138      -0.00535775 </v>
   <v>       0.33366496      -0.09016035       0.06435428 </v>
   <v>       0.16444740       0.32595509       0.20532979 </v>
   <v>       0.16673065      -0.17320506       0.20398039 </v>
   <v>      -0.33422140      -0.17741054       0.20375821 </v>
   <v>      -0.33356528      -0.42448085      -0.00607798 </v>
   <v>      -0.08366118      -0.42399935      -0.00680749 </v>
   <v>       0.07914211      -0.09464026       0.27400646 </v>
   <v>      -0.16496652      -0.09507317       0.27494913 </v>
   <v>       0.08418224       0.16218421       0.27706969 </v>
   <v>       0.33112050       0.40956871       0.16736282 </v>
   <v>       0.24904571       0.49282572       0.02896259 </v>
   <v>      -0.41635745      -0.33974763       0.16718476 </v>
   <v>      -0.25027709       0.24325398       0.03048782 </v>
   <v>      -0.49985720      -0.25601206       0.02888695 </v>
   <v>      -0.49984818       0.24298369       0.02992081 </v>
   <v>       0.33349196      -0.09066299       0.16783895 </v>
   <v>       0.25007116      -0.25642286       0.02818636 </v>
   <v>      -0.24939766       0.49312157       0.02850067 </v>
   <v>       0.08460138      -0.33929724       0.16886640 </v>
   <v>      -0.41731706      -0.09102564       0.17004683 </v>
   <v>       0.08325102       0.41124385       0.17040873 </v>
   <v>      -0.08490218       0.07454016       0.31045788 </v>
   <v>      -0.07720368      -0.16976726       0.31101212 </v>
   <v>       0.16489353       0.07057290       0.31598743 </v>
   <v>       0.41599200       0.32715141       0.20085588 </v>
   <v>       0.24817916       0.49236483       0.13243946 </v>
   <v>      -0.32901710      -0.42336275       0.20182286 </v>
   <v>      -0.49956338      -0.25598367       0.13187077 </v>
   <v>      -0.16349564       0.16153591       0.27232866 </v>
   <v>       0.24941781      -0.25689193       0.13170413 </v>
   <v>      -0.24794902       0.49393158       0.13210654 </v>
   <v>       0.41517561       0.07488961       0.20345560 </v>
   <v>      -0.08084063      -0.41990217       0.20463623 </v>
   <v>      -0.25000023       0.24393293       0.13492412 </v>
   <v>      -0.49932521       0.24296540       0.13397281 </v>
   <v>      -0.16572531      -0.34059193       0.27530734 </v>
   <v>      -0.08279514       0.33043288       0.20712444 </v>
   <v>      -0.33493583       0.07824451       0.20786206 </v>
   <v>      -0.01034511      -0.01563096       0.34938274 </v>
   <v>       0.34215050       0.16553146       0.28183998 </v>
   <v>      -0.00025538       0.49285546       0.02920928 </v>
   <v>      -0.49883965      -0.00570760       0.03002322 </v>
   <v>      -0.49967161       0.49326695       0.02887153 </v>
   <v>       0.15721200       0.32180035       0.31089711 </v>
   <v>      -0.33121527      -0.17021929       0.31161650 </v>
   <v>       0.16772281      -0.17394225       0.31154614 </v>
   <v>       0.16607332      -0.42520246      -0.00635762 </v>
   <v>      -0.49801622       0.49426959       0.13247432 </v>
   <v>      -0.49850239      -0.00590484       0.13348709 </v>
   <v>      -0.16654493       0.40968284       0.06502547 </v>
   <v>       0.41625428      -0.42419116      -0.00605486 </v>
   <v>       0.32661379       0.40786155       0.27433620 </v>
   <v>      -0.00045937       0.49396789       0.13299346 </v>
   <v>      -0.41618780       0.16066648       0.06616649 </v>
   <v>       0.41717477      -0.17275227      -0.00663205 </v>
   <v>      -0.41621422       0.40928348       0.06544464 </v>
   <v>       0.33270013      -0.09557329       0.27116802 </v>
   <v>       0.08290373      -0.33819205       0.27491729 </v>
   <v>      -0.41918837      -0.09272006       0.27325765 </v>
   <v>       0.08561679       0.40888626       0.27756176 </v>
   <v>      -0.24438374       0.00284656       0.34604377 </v>
   <v>      -0.00126042       0.24259695       0.34764052 </v>
   <v>      -0.41814547      -0.35239700       0.27625138 </v>
   <v>      -0.00082898      -0.25915532       0.34812852 </v>
   <v>       0.24137842      -0.02485739       0.35073818 </v>
   <v>      -0.32378656      -0.41821841       0.30191321 </v>
   <v>      -0.25133816      -0.26678662       0.36146159 </v>
   <v>       0.40986351       0.32711024       0.30354974 </v>
   <v>       0.24506759       0.25029560       0.36507113 </v>
   <v>      -0.16558599       0.41199105       0.16916542 </v>
   <v>      -0.41620524       0.40948908       0.16782093 </v>
   <v>      -0.41720286       0.16052626       0.17149054 </v>
   <v>      -0.33227850       0.07660911       0.31043988 </v>
   <v>       0.40989880       0.06072202       0.31032090 </v>
   <v>      -0.07362663      -0.41783822       0.31140669 </v>
   <v>      -0.08268713       0.32689769       0.31125979 </v>
   <v>       0.41607955      -0.42284026       0.19951935 </v>
   <v>       0.41682710      -0.17402378       0.20293100 </v>
   <v>      -0.33329801       0.32670069      -0.00595888 </v>
   <v>       0.33306491      -0.33937858       0.06382777 </v>
   <v>       0.16606138      -0.42332440       0.20367998 </v>
   <v>       0.33198047      -0.33922313       0.16777516 </v>
   <v>      -0.16363647       0.41920348       0.27545264 </v>
   <v>      -0.23942928       0.24307010       0.34705790 </v>
   <v>      -0.33260556       0.32933664       0.20481471 </v>
   <v>      -0.41903058       0.41542338       0.27958793 </v>
   <v>      -0.41864922       0.16360022       0.28054393 </v>
   <v>       0.25741742      -0.24619016       0.34985529 </v>
   <v>       0.49823777      -0.25510249       0.36021779 </v>
   <v>       0.25111365       0.48554899       0.36686599 </v>
   <v>      -0.26111933       0.49807766       0.36526569 </v>
   <v>       0.41018729      -0.42086031       0.30328025 </v>
   <v>       0.41557993      -0.17146188       0.31073815 </v>
   <v>       0.32647563       0.33195155       0.42187776 </v>
   <v>       0.16601270      -0.41960446       0.31598990 </v>
   <v>      -0.33971104      -0.34007696       0.42057491 </v>
   <v>       0.33469443      -0.33671511       0.27390386 </v>
   <v>      -0.49587627      -0.01497627       0.34849265 </v>
   <v>      -0.00736394       0.49349631       0.34946836 </v>
   <v>      -0.32139723       0.33119657       0.31047157 </v>
   <v>      -0.48281970      -0.32499855       0.41732954 </v>
   <v>      -0.35384261       0.49104281       0.41849734 </v>
   <v>       0.32607032       0.48641831       0.42907564 </v>
   <v>       0.48964642      -0.49108108       0.41720109 </v>
   <v>      -0.45455993      -0.07859214       0.45958687 </v>
   <v>       0.48943311       0.37161887       0.45754268 </v>
   <v>       0.39085905       0.42338132      -0.49190868 </v>
   <v>      -0.44373888      -0.15135990      -0.48387521 </v>
   <v>      -0.41876929      -0.45793734      -0.49988020 </v>
   <v>      -0.48289325      -0.11304036      -0.49807403 </v>
   <v>       0.45667723      -0.40605239      -0.49759393 </v>
   <v>       0.43772186      -0.16619461       0.49825384 </v>
   <v>      -0.47110927      -0.05614590      -0.46614190 </v>
  </varray>
 </structure>
 <varray name="primitive_index" >
  <v type="int" >        1 </v>
  <v type="int" >      117 </v>
  <v type="int" >      137 </v>
  <v type="int" >       79 </v>
  <v type="int" >       61 </v>
  <v type="int" >       50 </v>
  <v type="int" >      123 </v>
  <v type="int" >       58 </v>
  <v type="int" >        7 </v>
  <v type="int" >       43 </v>
  <v type="int" >       22 </v>
  <v type="int" >        4 </v>
  <v type="int" >       10 </v>
  <v type="int" >       28 </v>
  <v type="int" >       41 </v>
  <v type="int" >       32 </v>
  <v type="int" >       11 </v>
  <v type="int" >       56 </v>
  <v type="int" >      106 </v>
  <v type="int" >      127 </v>
  <v type="int" >       53 </v>
  <v type="int" >      120 </v>
  <v type="int" >      135 </v>
  <v type="int" >       49 </v>
  <v type="int" >       64 </v>
  <v type="int" >       88 </v>
  <v type="int" >       59 </v>
  <v type="int" >       96 </v>
  <v type="int" >       77 </v>
  <v type="int" >      133 </v>
  <v type="int" >       94 </v>
  <v type="int" >       68 </v>
  <v type="int" >       38 </v>
  <v type="int" >        2 </v>
  <v type="int" >       14 </v>
  <v type="int" >       70 </v>
  <v type="int" >       76 </v>
  <v type="int" >      140 </v>
  <v type="int" >       67 </v>
  <v type="int" >      132 </v>
  <v type="int" >      108 </v>
  <v type="int" >       82 </v>
  <v type="int" >       52 </v>
  <v type="int" >       55 </v>
  <v type="int" >      114 </v>
  <v type="int" >       65 </v>
  <v type="int" >      112 </v>
  <v type="int" >      136 </v>
  <v type="int" >      129 </v>
  <v type="int" >      126 </v>
  <v type="int" >      104 </v>
  <v type="int" >      131 </v>
  <v type="int" >       54 </v>
  <v type="int" >        5 </v>
  <v type="int" >       34 </v>
  <v type="int" >       47 </v>
  <v type="int" >       19 </v>
  <v type="int" >       40 </v>
  <v type="int" >       16 </v>
  <v type="int" >       29 </v>
  <v type="int" >       31 </v>
  <v type="int" >       46 </v>
  <v type="int" >       35 </v>
  <v type="int" >       44 </v>
  <v type="int" >        8 </v>
  <v type="int" >       21 </v>
  <v type="int" >       48 </v>
  <v type="int" >        6 </v>
  <v type="int" >       62 </v>
  <v type="int" >      100 </v>
  <v type="int" >      138 </v>
  <v type="int" >      130 </v>
  <v type="int" >       75 </v>
  <v type="int" >      103 </v>
  <v type="int" >      124 </v>
  <v type="int" >       71 </v>
  <v type="int" >      139 </v>
  <v type="int" >       80 </v>
  <v type="int" >       83 </v>
  <v type="int" >      122 </v>
  <v type="int" >       86 </v>
  <v type="int" >       92 </v>
  <v type="int" >       66 </v>
  <v type="int" >       51 </v>
  <v type="int" >       25 </v>
  <v type="int" >       13 </v>
  <v type="int" >       37 </v>
  <v type="int" >        3 </v>
  <v type="int" >       39 </v>
  <v type="int" >       27 </v>
  <v type="int" >      105 </v>
  <v type="int" >      121 </v>
  <v type="int" >       74 </v>
  <v type="int" >       91 </v>
  <v type="int" >      102 </v>
  <v type="int" >       60 </v>
  <v type="int" >       97 </v>
  <v type="int" >       85 </v>
  <v type="int" >       99 </v>
  <v type="int" >       93 </v>
  <v type="int" >      107 </v>
  <v type="int" >      101 </v>
  <v type="int" >      128 </v>
  <v type="int" >       57 </v>
  <v type="int" >       87 </v>
  <v type="int" >       69 </v>
  <v type="int" >      125 </v>
  <v type="int" >      116 </v>
  <v type="int" >       63 </v>
  <v type="int" >       42 </v>
  <v type="int" >      141 </v>
  <v type="int" >       12 </v>
  <v type="int" >       72 </v>
  <v type="int" >       17 </v>
  <v type="int" >       20 </v>
  <v type="int" >       23 </v>
  <v type="int" >       18 </v>
  <v type="int" >        9 </v>
  <v type="int" >       45 </v>
  <v type="int" >       24 </v>
  <v type="int" >      118 </v>
  <v type="int" >      109 </v>
  <v type="int" >       73 </v>
  <v type="int" >      111 </v>
  <v type="int" >      115 </v>
  <v type="int" >       26 </v>
  <v type="int" >       84 </v>
  <v type="int" >       95 </v>
  <v type="int" >       89 </v>
  <v type="int" >       81 </v>
  <v type="int" >       78 </v>
  <v type="int" >      119 </v>
  <v type="int" >      142 </v>
  <v type="int" >      110 </v>
  <v type="int" >      134 </v>
  <v type="int" >       33 </v>
  <v type="int" >       36 </v>
  <v type="int" >      152 </v>
  <v type="int" >       30 </v>
  <v type="int" >      144 </v>
  <v type="int" >       98 </v>
  <v type="int" >       90 </v>
  <v type="int" >      113 </v>
  <v type="int" >       15 </v>
  <v type="int" >      143 </v>
  <v type="int" >      147 </v>
  <v type="int" >      150 </v>
  <v type="int" >      146 </v>
  <v type="int" >      157 </v>
  <v type="int" >      148 </v>
  <v type="int" >      151 </v>
  <v type="int" >      155 </v>
  <v type="int" >      149 </v>
  <v type="int" >      153 </v>
  <v type="int" >      145 </v>
  <v type="int" >      154 </v>
  <v type="int" >      156 </v>
 </varray>
 <kpoints>
  <varray name="kpointlist" >
   <v>       0.00000000       0.00000000       0.00000000 </v>
  </varray>
  <varray name="weights" >
   <v>       1.00000000 </v>
  </varray>
 </kpoints>
 <parameters>
  <separator name="general" >
   <i type="string" name="SYSTEM">CeO2</i>
   <i type="logical" name="LCOMPAT"> F  </i>
  </separator>
  <separator name="electronic" >
   <i type="string" name="PREC">acc</i>
   <i name="ENMAX">    500.00000000</i>
   <i name="ENAUG">    644.87300000</i>
   <i name="EDIFF">      0.00010000</i>
   <i type="int" name="IALGO">    38</i>
   <i type="int" name="IWAVPR">    11</i>
   <i type="int" name="NBANDS">   828</i>
   <i name="NELECT">   1248.00000000</i>
   <i type="int" name="TURBO">     0</i>
   <i type="int" name="IRESTART">     0</i>
   <i type="int" name="NREBOOT">     0</i>
   <i type="int" name="NMIN">     0</i>
   <i name="EREF">      0.00000000</i>
   <separator name="electronic smearing" >
    <i type="int" name="ISMEAR">     0</i>
    <i name="SIGMA">      0.10000000</i>
    <i name="KSPACING">      0.50000000</i>
    <i type="logical" name="KGAMMA"> T  </i>
   </separator>
   <separator name="electronic projectors" >
    <i type="logical" name="LREAL"> T  </i>
    <v name="ROPT">     -0.00025000     -0.00025000     -0.00025000     -0.00025000     -0.00025000</v>
    <i type="int" name="LMAXPAW">  -100</i>
    <i type="int" name="LMAXMIX">     6</i>
    <i type="logical" name="NLSPLINE"> F  </i>
   </separator>
   <separator name="electronic startup" >
    <i type="int" name="ISTART">     0</i>
    <i type="int" name="ICHARG">     2</i>
    <i type="int" name="INIWAV">     1</i>
   </separator>
   <separator name="electronic spin" >
    <i type="int" name="ISPIN">     2</i>
    <i type="logical" name="LNONCOLLINEAR"> F  </i>
    <v name="MAGMOM">      1.00000000      1.00000000      1.00000000      1.00000000      1.00000000      1.00000000      1.00000000      1.00000000      1.00000000      1.00000000      1.00000000      1.00000000      1.00000000      1.00000000      1.00000000      1.00000000      1.00000000      1.00000000      1.00000000      1.00000000
      1.00000000      1.00000000      1.00000000      1.00000000      1.00000000      1.00000000      1.00000000      1.00000000      1.00000000      1.00000000      1.00000000      1.00000000      1.00000000      1.00000000      1.00000000      1.00000000      1.00000000      1.00000000      1.00000000      1.00000000
      1.00000000      1.00000000      1.00000000      1.00000000      1.00000000      1.00000000      1.00000000      1.00000000      1.00000000      1.00000000      1.00000000      1.00000000      1.00000000      1.00000000      1.00000000      1.00000000      1.00000000      1.00000000      1.00000000      1.00000000
      1.00000000      1.00000000      1.00000000      1.00000000      1.00000000      1.00000000      1.00000000      1.00000000      1.00000000      1.00000000      1.00000000      1.00000000      1.00000000      1.00000000      1.00000000      1.00000000      1.00000000      1.00000000      1.00000000      1.00000000
      1.00000000      1.00000000      1.00000000      1.00000000      1.00000000      1.00000000      1.00000000      1.00000000      1.00000000      1.00000000      1.00000000      1.00000000      1.00000000      1.00000000      1.00000000      1.00000000      1.00000000      1.00000000      1.00000000      1.00000000
      1.00000000      1.00000000      1.00000000      1.00000000      1.00000000      1.00000000      1.00000000      1.00000000      1.00000000      1.00000000      1.00000000      1.00000000      1.00000000      1.00000000      1.00000000      1.00000000      1.00000000      1.00000000      1.00000000      1.00000000
      1.00000000      1.00000000      1.00000000      1.00000000      1.00000000      1.00000000      1.00000000      1.00000000      1.00000000      1.00000000      1.00000000      1.00000000      1.00000000      1.00000000      1.00000000      1.00000000      1.00000000      1.00000000      1.00000000      1.00000000
      1.00000000      1.00000000      1.00000000      1.00000000      1.00000000      1.00000000      1.00000000      1.00000000      1.00000000      1.00000000      1.00000000      1.00000000      1.00000000      1.00000000      1.00000000      1.00000000      1.00000000</v>
    <i name="NUPDOWN">     -1.00000000</i>
    <i type="logical" name="LSORBIT"> F  </i>
    <v name="SAXIS">      0.00000000      0.00000000      1.00000000</v>
    <i type="logical" name="LSPIRAL"> F  </i>
    <v name="QSPIRAL">      0.00000000      0.00000000      0.00000000</v>
    <i type="logical" name="LZEROZ"> F  </i>
   </separator>
   <separator name="electronic exchange-correlation" >
    <i type="logical" name="LASPH"> F  </i>
    <i type="logical" name="LMETAGGA"> F  </i>
   </separator>
   <separator name="electronic convergence" >
    <i type="int" name="NELM">   100</i>
    <i type="int" name="NELMDL">    -5</i>
    <i type="int" name="NELMIN">     2</i>
    <i name="ENINI">    500.00000000</i>
    <separator name="electronic convergence detail" >
     <i type="logical" name="LDIAG"> T  </i>
     <i type="logical" name="LSUBROT"> F  </i>
     <i name="WEIMIN">      0.00100000</i>
     <i name="EBREAK">      0.00000003</i>
     <i name="DEPER">      0.30000000</i>
     <i type="int" name="NRMM">     4</i>
     <i name="TIME">      0.40000000</i>
    </separator>
   </separator>
   <separator name="electronic mixer" >
    <i name="AMIX">      0.40000000</i>
    <i name="BMIX">      1.00000000</i>
    <i name="AMIN">      0.10000000</i>
    <i name="AMIX_MAG">      1.60000000</i>
    <i name="BMIX_MAG">      1.00000000</i>
    <separator name="electronic mixer details" >
     <i type="int" name="IMIX">     4</i>
     <i type="logical" name="MIXFIRST"> F  </i>
     <i type="int" name="MAXMIX">   -45</i>
     <i name="WC">    100.00000000</i>
     <i type="int" name="INIMIX">     1</i>
     <i type="int" name="MIXPRE">     1</i>
     <i type="int" name="MREMOVE">     5</i>
    </separator>
   </separator>
   <separator name="electronic dipolcorrection" >
    <i type="logical" name="LDIPOL"> F  </i>
    <i type="logical" name="LMONO"> F  </i>
    <i type="int" name="IDIPOL">     3</i>
    <i name="EPSILON">      1.00000000</i>
    <v name="DIPOL">   -100.00000000   -100.00000000   -100.00000000</v>
    <i name="EFIELD">      0.00000000</i>
   </separator>
  </separator>
  <separator name="grids" >
   <i type="int" name="NGX">   120</i>
   <i type="int" name="NGY">   120</i>
   <i type="int" name="NGZ">   168</i>
   <i type="int" name="NGXF">   240</i>
   <i type="int" name="NGYF">   240</i>
   <i type="int" name="NGZF">   336</i>
   <i type="logical" name="ADDGRID"> T  </i>
  </separator>
  <separator name="ionic" >
   <i type="int" name="NSW">    16</i>
   <i type="int" name="IBRION">     3</i>
   <i type="int" name="MDALGO">     0</i>
   <i type="int" name="ISIF">     2</i>
   <i name="PSTRESS">      0.00000000</i>
   <i name="EDIFFG">      0.00100000</i>
   <i type="int" name="NFREE">     0</i>
   <i name="POTIM">      0.00000000</i>
   <i name="SMASS">     -3.00000000</i>
   <i name="SCALEE">      1.00000000</i>
  </separator>
  <separator name="ionic md" >
   <i name="TEBEG">      0.00010000</i>
   <i name="TEEND">      0.00010000</i>
   <i type="int" name="NBLOCK">     1</i>
   <i type="int" name="KBLOCK">    16</i>
   <i type="int" name="NPACO">   256</i>
   <i name="APACO">     16.00000000</i>
  </separator>
  <separator name="symmetry" >
   <i type="int" name="ISYM">     2</i>
   <i name="SYMPREC">      0.00001000</i>
  </separator>
  <separator name="dos" >
   <i type="int" name="LORBIT">     0</i>
   <v name="RWIGS">     -1.00000000     -1.00000000     -1.00000000     -1.00000000     -1.00000000</v>
   <i type="int" name="NEDOS">   301</i>
   <i name="EMIN">     10.00000000</i>
   <i name="EMAX">    -10.00000000</i>
   <i name="EFERMI">      0.00000000</i>
  </separator>
  <separator name="writing" >
   <i type="int" name="NWRITE">     2</i>
   <i type="logical" name="LWAVE"> F  </i>
   <i type="logical" name="LDOWNSAMPLE"> F  </i>
   <i type="logical" name="LCHARG"> F  </i>
   <i type="logical" name="LPARD"> F  </i>
   <i type="logical" name="LVTOT"> F  </i>
   <i type="logical" name="LVHAR"> F  </i>
   <i type="logical" name="LELF"> F  </i>
   <i type="logical" name="LOPTICS"> F  </i>
   <v name="STM">      0.00000000      0.00000000      0.00000000      0.00000000      0.00000000      0.00000000      0.00000000</v>
  </separator>
  <separator name="performance" >
   <i type="int" name="NPAR">     4</i>
   <i type="int" name="NSIM">     4</i>
   <i type="int" name="NBLK">    -1</i>
   <i type="logical" name="LPLANE"> T  </i>
   <i type="logical" name="LSCALAPACK"> T  </i>
   <i type="logical" name="LSCAAWARE"> F  </i>
   <i type="logical" name="LSCALU"> F  </i>
   <i type="logical" name="LASYNC"> F  </i>
   <i type="logical" name="LORBITALREAL"> F  </i>
  </separator>
  <separator name="miscellaneous" >
   <i type="int" name="IDIOT">     3</i>
   <i type="int" name="ISPECIAL">     0</i>
   <i type="logical" name="LMUSIC"> F  </i>
   <v name="POMASS">    140.11500000     16.00000000     58.69000000     12.01100000      1.00000000</v>
   <v name="DARWINR">      0.00000000      0.00000000      0.00000000      0.00000000      0.00000000</v>
   <v name="DARWINV">      1.00000000      1.00000000      1.00000000      1.00000000      1.00000000</v>
   <i type="logical" name="LCORR"> T  </i>
  </separator>
  <i type="logical" name="GGA_COMPAT"> T  </i>
  <i type="logical" name="LBERRY"> F  </i>
  <i type="int" name="ICORELEVEL">     0</i>
  <i type="logical" name="LDAU"> T  </i>
  <v type="int" name="LDAUTYPE">     2</v>
  <v type="int" name="LDAUL">     3</v>
  <v name="LDAUU">      5.00000000</v>
  <v name="LDAUJ">      0.00000000</v>
  <i type="int" name="LDAUPRINT">     0</i>
  <i type="int" name="I_CONSTRAINED_M">     0</i>
  <separator name="electronic exchange-correlation" >
   <i type="string" name="GGA">BF</i>
   <i type="int" name="VOSKOWN">     0</i>
   <i type="logical" name="LHFCALC"> F  </i>
   <i type="string" name="PRECFOCK"></i>
   <i type="logical" name="LSYMGRAD"> F  </i>
   <i type="logical" name="LHFONE"> F  </i>
   <i type="logical" name="LRHFCALC"> F  </i>
   <i type="logical" name="LTHOMAS"> F  </i>
   <i type="logical" name="LMODELHF"> F  </i>
   <i name="ENCUT4O">     -1.00000000</i>
   <i type="int" name="EXXOEP">     0</i>
   <i type="int" name="FOURORBIT">     0</i>
   <i name="AEXX">      0.00000000</i>
   <i name="HFALPHA">      0.00000000</i>
   <i name="MCALPHA">      0.00000000</i>
   <i name="ALDAX">      1.00000000</i>
   <i name="AGGAX">      1.00000000</i>
   <i name="ALDAC">      1.00000000</i>
   <i name="AGGAC">      1.00000000</i>
   <i type="int" name="NKREDX">     1</i>
   <i type="int" name="NKREDY">     1</i>
   <i type="int" name="NKREDZ">     1</i>
   <i type="logical" name="SHIFTRED"> F  </i>
   <i type="logical" name="ODDONLY"> F  </i>
   <i type="logical" name="EVENONLY"> F  </i>
   <i type="int" name="LMAXFOCK">     0</i>
   <i type="int" name="NMAXFOCKAE">     0</i>
   <i type="logical" name="LFOCKAEDFT"> F  </i>
   <i name="HFSCREEN">      0.00000000</i>
   <i name="HFSCREENC">      0.00000000</i>
   <i type="int" name="NBANDSGWLOW">     0</i>
  </separator>
  <separator name="vdW DFT" >
   <i type="logical" name="LUSE_VDW"> T  </i>
   <i name="Zab_VDW">     -1.88670000</i>
   <i name="PARAM1">      0.12340000</i>
   <i name="PARAM2">      1.00000000</i>
   <i name="PARAM3">      0.00000000</i>
  </separator>
  <separator name="model GW" >
   <i type="int" name="MODEL_GW">     0</i>
   <i name="MODEL_EPS0">     18.28879827</i>
   <i name="MODEL_ALPHA">      1.00000000</i>
  </separator>
  <separator name="linear response parameters" >
   <i type="logical" name="LEPSILON"> F  </i>
   <i type="logical" name="LRPA"> F  </i>
   <i type="logical" name="LNABLA"> F  </i>
   <i type="logical" name="LVEL"> F  </i>
   <i type="int" name="KINTER">     0</i>
   <i name="CSHIFT">      0.10000000</i>
   <i name="OMEGAMAX">     -1.00000000</i>
   <i name="DEG_THRESHOLD">      0.00200000</i>
   <i name="RTIME">     -0.10000000</i>
   <i name="WPLASMAI">      0.00000000</i>
   <v name="DFIELD">      0.00000000      0.00000000      0.00000000</v>
   <v name="WPLASMA">      0.00000000      0.00000000      0.00000000      0.00000000      0.00000000      0.00000000      0.00000000      0.00000000      0.00000000</v>
  </separator>
  <separator name="orbital magnetization" >
   <i type="logical" name="NUCIND"> F  </i>
   <v name="MAGPOS">      0.00000000      0.00000000      0.00000000</v>
   <i type="logical" name="LNICSALL"> T  </i>
   <i type="logical" name="ORBITALMAG"> F  </i>
   <i type="logical" name="LMAGBLOCH"> F  </i>
   <i type="logical" name="LCHIMAG"> F  </i>
   <i type="logical" name="LGAUGE"> T  </i>
   <i type="int" name="MAGATOM">     0</i>
   <v name="MAGDIPOL">      0.00000000      0.00000000      0.00000000</v>
   <v name="AVECCONST">      0.00000000      0.00000000      0.00000000</v>
  </separator>
  <separator name="response functions" >
   <i type="logical" name="LADDER"> F  </i>
   <i type="logical" name="LRPAFORCE"> F  </i>
   <i type="logical" name="LFXC"> F  </i>
   <i type="logical" name="LHARTREE"> T  </i>
   <i type="int" name="IBSE">     0</i>
   <v type="int" name="KPOINT">    -1     0     0     0</v>
   <i type="logical" name="LTCTE"> F  </i>
   <i type="logical" name="LTETE"> F  </i>
   <i type="logical" name="LTRIPLET"> F  </i>
   <i type="logical" name="LFXCEPS"> F  </i>
   <i type="logical" name="LFXHEG"> F  </i>
   <i type="int" name="NATURALO">     2</i>
   <i type="logical" name="L2ORDER"> F  </i>
   <i type="logical" name="LMP2LT"> F  </i>
   <i type="logical" name="LUSEW"> F  </i>
   <i name="ENCUTGW">     -2.00000000</i>
   <i name="ENCUTGWSOFT">     -2.00000000</i>
   <i name="ENCUTLF">     -1.00000000</i>
   <i type="int" name="LMAXMP2">    -1</i>
   <i name="SCISSOR">      0.00000000</i>
   <i type="int" name="NOMEGA">     0</i>
   <i type="int" name="NOMEGAR">     0</i>
   <i type="int" name="NBANDSGW">    -1</i>
   <i type="int" name="NBANDSO">    -1</i>
   <i type="int" name="NBANDSV">    -1</i>
   <i type="int" name="NELM">   100</i>
   <i type="int" name="NELMHF">     1</i>
   <i type="int" name="DIM">     3</i>
   <i type="int" name="ANTIRES">     0</i>
   <i name="OMEGAMAX">    -30.00000000</i>
   <i name="OMEGAMIN">    -30.00000000</i>
   <i name="OMEGATL">   -200.00000000</i>
   <i type="int" name="OMEGAGRID">   140</i>
   <i name="CSHIFT">     -0.10000000</i>
   <i type="logical" name="SELFENERGY"> F  </i>
   <i type="logical" name="LSPECTRAL"> F  </i>
   <i type="logical" name="LSPECTRALGW"> F  </i>
   <i type="logical" name="LSINGLES"> F  </i>
   <i type="logical" name="LFERMIGW"> F  </i>
   <i type="logical" name="ODDONLYGW"> F  </i>
   <i type="logical" name="EVENONLYGW"> F  </i>
   <i type="int" name="NKREDLFX">     1</i>
   <i type="int" name="NKREDLFY">     1</i>
   <i type="int" name="NKREDLFZ">     1</i>
   <i type="int" name="MAXMEM">  2800</i>
   <i type="int" name="TELESCOPE">     0</i>
   <i type="int" name="TAUPAR">     1</i>
   <i type="int" name="OMEGAPAR">    -1</i>
   <i name="LAMBDA">      1.00000000</i>
  </separator>
  <separator name="External order field" >
   <i name="OFIELD_KAPPA">      0.00000000</i>
   <v name="OFIELD_K">      0.00000000      0.00000000      0.00000000</v>
   <i name="OFIELD_Q6_NEAR">      0.00000000</i>
   <i name="OFIELD_Q6_FAR">      0.00000000</i>
   <i name="OFIELD_A">      0.00000000</i>
  </separator>
 </parameters>
 <atominfo>
  <atoms>     157 </atoms>
  <types>       5 </types>
  <array name="atoms" >
   <dimension dim="1">ion</dimension>
   <field type="string">element</field>
   <field type="int">atomtype</field>
   <set>
    <rc><c>Ce</c><c>   1</c></rc>
    <rc><c>Ce</c><c>   1</c></rc>
    <rc><c>Ce</c><c>   1</c></rc>
    <rc><c>Ce</c><c>   1</c></rc>
    <rc><c>Ce</c><c>   1</c></rc>
    <rc><c>Ce</c><c>   1</c></rc>
    <rc><c>Ce</c><c>   1</c></rc>
    <rc><c>Ce</c><c>   1</c></rc>
    <rc><c>Ce</c><c>   1</c></rc>
    <rc><c>Ce</c><c>   1</c></rc>
    <rc><c>Ce</c><c>   1</c></rc>
    <rc><c>Ce</c><c>   1</c></rc>
    <rc><c>Ce</c><c>   1</c></rc>
    <rc><c>Ce</c><c>   1</c></rc>
    <rc><c>Ce</c><c>   1</c></rc>
    <rc><c>Ce</c><c>   1</c></rc>
    <rc><c>Ce</c><c>   1</c></rc>
    <rc><c>Ce</c><c>   1</c></rc>
    <rc><c>Ce</c><c>   1</c></rc>
    <rc><c>Ce</c><c>   1</c></rc>
    <rc><c>Ce</c><c>   1</c></rc>
    <rc><c>Ce</c><c>   1</c></rc>
    <rc><c>Ce</c><c>   1</c></rc>
    <rc><c>Ce</c><c>   1</c></rc>
    <rc><c>Ce</c><c>   1</c></rc>
    <rc><c>Ce</c><c>   1</c></rc>
    <rc><c>Ce</c><c>   1</c></rc>
    <rc><c>Ce</c><c>   1</c></rc>
    <rc><c>Ce</c><c>   1</c></rc>
    <rc><c>Ce</c><c>   1</c></rc>
    <rc><c>Ce</c><c>   1</c></rc>
    <rc><c>Ce</c><c>   1</c></rc>
    <rc><c>Ce</c><c>   1</c></rc>
    <rc><c>Ce</c><c>   1</c></rc>
    <rc><c>Ce</c><c>   1</c></rc>
    <rc><c>Ce</c><c>   1</c></rc>
    <rc><c>Ce</c><c>   1</c></rc>
    <rc><c>Ce</c><c>   1</c></rc>
    <rc><c>Ce</c><c>   1</c></rc>
    <rc><c>Ce</c><c>   1</c></rc>
    <rc><c>Ce</c><c>   1</c></rc>
    <rc><c>Ce</c><c>   1</c></rc>
    <rc><c>Ce</c><c>   1</c></rc>
    <rc><c>Ce</c><c>   1</c></rc>
    <rc><c>Ce</c><c>   1</c></rc>
    <rc><c>Ce</c><c>   1</c></rc>
    <rc><c>Ce</c><c>   1</c></rc>
    <rc><c>Ce</c><c>   1</c></rc>
    <rc><c>O </c><c>   2</c></rc>
    <rc><c>O </c><c>   2</c></rc>
    <rc><c>O </c><c>   2</c></rc>
    <rc><c>O </c><c>   2</c></rc>
    <rc><c>O </c><c>   2</c></rc>
    <rc><c>O </c><c>   2</c></rc>
    <rc><c>O </c><c>   2</c></rc>
    <rc><c>O </c><c>   2</c></rc>
    <rc><c>O </c><c>   2</c></rc>
    <rc><c>O </c><c>   2</c></rc>
    <rc><c>O </c><c>   2</c></rc>
    <rc><c>O </c><c>   2</c></rc>
    <rc><c>O </c><c>   2</c></rc>
    <rc><c>O </c><c>   2</c></rc>
    <rc><c>O </c><c>   2</c></rc>
    <rc><c>O </c><c>   2</c></rc>
    <rc><c>O </c><c>   2</c></rc>
    <rc><c>O </c><c>   2</c></rc>
    <rc><c>O </c><c>   2</c></rc>
    <rc><c>O </c><c>   2</c></rc>
    <rc><c>O </c><c>   2</c></rc>
    <rc><c>O </c><c>   2</c></rc>
    <rc><c>O </c><c>   2</c></rc>
    <rc><c>O </c><c>   2</c></rc>
    <rc><c>O </c><c>   2</c></rc>
    <rc><c>O </c><c>   2</c></rc>
    <rc><c>O </c><c>   2</c></rc>
    <rc><c>O </c><c>   2</c></rc>
    <rc><c>O </c><c>   2</c></rc>
    <rc><c>O </c><c>   2</c></rc>
    <rc><c>O </c><c>   2</c></rc>
    <rc><c>O </c><c>   2</c></rc>
    <rc><c>O </c><c>   2</c></rc>
    <rc><c>O </c><c>   2</c></rc>
    <rc><c>O </c><c>   2</c></rc>
    <rc><c>O </c><c>   2</c></rc>
    <rc><c>O </c><c>   2</c></rc>
    <rc><c>O </c><c>   2</c></rc>
    <rc><c>O </c><c>   2</c></rc>
    <rc><c>O </c><c>   2</c></rc>
    <rc><c>O </c><c>   2</c></rc>
    <rc><c>O </c><c>   2</c></rc>
    <rc><c>O </c><c>   2</c></rc>
    <rc><c>O </c><c>   2</c></rc>
    <rc><c>O </c><c>   2</c></rc>
    <rc><c>O </c><c>   2</c></rc>
    <rc><c>O </c><c>   2</c></rc>
    <rc><c>O </c><c>   2</c></rc>
    <rc><c>O </c><c>   2</c></rc>
    <rc><c>O </c><c>   2</c></rc>
    <rc><c>O </c><c>   2</c></rc>
    <rc><c>O </c><c>   2</c></rc>
    <rc><c>O </c><c>   2</c></rc>
    <rc><c>O </c><c>   2</c></rc>
    <rc><c>O </c><c>   2</c></rc>
    <rc><c>O </c><c>   2</c></rc>
    <rc><c>O </c><c>   2</c></rc>
    <rc><c>O </c><c>   2</c></rc>
    <rc><c>O </c><c>   2</c></rc>
    <rc><c>O </c><c>   2</c></rc>
    <rc><c>O </c><c>   2</c></rc>
    <rc><c>O </c><c>   2</c></rc>
    <rc><c>O </c><c>   2</c></rc>
    <rc><c>O </c><c>   2</c></rc>
    <rc><c>O </c><c>   2</c></rc>
    <rc><c>O </c><c>   2</c></rc>
    <rc><c>O </c><c>   2</c></rc>
    <rc><c>O </c><c>   2</c></rc>
    <rc><c>O </c><c>   2</c></rc>
    <rc><c>O </c><c>   2</c></rc>
    <rc><c>O </c><c>   2</c></rc>
    <rc><c>O </c><c>   2</c></rc>
    <rc><c>O </c><c>   2</c></rc>
    <rc><c>O </c><c>   2</c></rc>
    <rc><c>O </c><c>   2</c></rc>
    <rc><c>O </c><c>   2</c></rc>
    <rc><c>O </c><c>   2</c></rc>
    <rc><c>O </c><c>   2</c></rc>
    <rc><c>O </c><c>   2</c></rc>
    <rc><c>O </c><c>   2</c></rc>
    <rc><c>O </c><c>   2</c></rc>
    <rc><c>O </c><c>   2</c></rc>
    <rc><c>O </c><c>   2</c></rc>
    <rc><c>O </c><c>   2</c></rc>
    <rc><c>O </c><c>   2</c></rc>
    <rc><c>O </c><c>   2</c></rc>
    <rc><c>O </c><c>   2</c></rc>
    <rc><c>O </c><c>   2</c></rc>
    <rc><c>O </c><c>   2</c></rc>
    <rc><c>O </c><c>   2</c></rc>
    <rc><c>O </c><c>   2</c></rc>
    <rc><c>O </c><c>   2</c></rc>
    <rc><c>O </c><c>   2</c></rc>
    <rc><c>O </c><c>   2</c></rc>
    <rc><c>Ni</c><c>   3</c></rc>
    <rc><c>Ni</c><c>   3</c></rc>
    <rc><c>Ni</c><c>   3</c></rc>
    <rc><c>Ni</c><c>   3</c></rc>
    <rc><c>Ni</c><c>   3</c></rc>
    <rc><c>Ni</c><c>   3</c></rc>
    <rc><c>Ni</c><c>   3</c></rc>
    <rc><c>Ni</c><c>   3</c></rc>
    <rc><c>Ni</c><c>   3</c></rc>
    <rc><c>Ni</c><c>   3</c></rc>
    <rc><c>C </c><c>   4</c></rc>
    <rc><c>H </c><c>   5</c></rc>
    <rc><c>H </c><c>   5</c></rc>
    <rc><c>H </c><c>   5</c></rc>
    <rc><c>H </c><c>   5</c></rc>
   </set>
  </array>
  <array name="atomtypes" >
   <dimension dim="1">type</dimension>
   <field type="int">atomspertype</field>
   <field type="string">element</field>
   <field>mass</field>
   <field>valence</field>
   <field type="string">pseudopotential</field>
   <set>
    <rc><c>  48</c><c>Ce</c><c>    140.11500000</c><c>     12.00000000</c><c>  PAW_PBE Ce 23Dec2003                  </c></rc>
    <rc><c>  94</c><c>O </c><c>     16.00000000</c><c>      6.00000000</c><c> PAW_PBE O 08Apr2002                    </c></rc>
    <rc><c>  10</c><c>Ni</c><c>     58.69000000</c><c>     10.00000000</c><c> PAW_PBE Ni 06Sep2000                   </c></rc>
    <rc><c>   1</c><c>C </c><c>     12.01100000</c><c>      4.00000000</c><c> PAW_PBE C 08Apr2002                    </c></rc>
    <rc><c>   4</c><c>H </c><c>      1.00000000</c><c>      1.00000000</c><c> PAW_PBE H 15Jun2001                    </c></rc>
   </set>
  </array>
 </atominfo>
 <structure name="initialpos" >
  <crystal>
   <varray name="basis" >
    <v>      15.52620029       0.00000000       0.00000000 </v>
    <v>      -7.76321928      13.44600078       0.00000000 </v>
    <v>       0.00000000       0.00000000      22.92320061 </v>
   </varray>
   <i name="volume">   4785.56888143 </i>
   <varray name="rec_basis" >
    <v>       0.06440726       0.03718635       0.00000000 </v>
    <v>       0.00000000       0.07437156       0.00000000 </v>
    <v>       0.00000000       0.00000000       0.04362393 </v>
   </varray>
  </crystal>
  <varray name="positions" >
   <v>       0.00003917       0.99405901       0.03033624 </v>
   <v>       0.33275360       0.15837075       0.17008906 </v>
   <v>       0.15721200       0.32180035       0.31089711 </v>
   <v>       0.99940599       0.24336840       0.03090695 </v>
   <v>       0.33112050       0.40956871       0.16736282 </v>
   <v>       0.16489353       0.07057290       0.31598743 </v>
   <v>       0.24944105       0.24294864       0.03007226 </v>
   <v>       0.08325102       0.41124385       0.17040873 </v>
   <v>       0.40989880       0.06072202       0.31032090 </v>
   <v>       0.25007399       0.99406317       0.02938641 </v>
   <v>       0.08356700       0.15929873       0.17109050 </v>
   <v>       0.40986351       0.32711024       0.30354974 </v>
   <v>       0.50116035       0.99429240       0.03002322 </v>
   <v>       0.83340378       0.16050958       0.17064895 </v>
   <v>       0.67860277       0.33119657       0.31047157 </v>
   <v>       0.50015182       0.24298369       0.02992081 </v>
   <v>       0.83441401       0.41199105       0.16916542 </v>
   <v>       0.66772150       0.07660911       0.31043988 </v>
   <v>       0.74972291       0.24325398       0.03048782 </v>
   <v>       0.58379476       0.40948908       0.16782093 </v>
   <v>       0.91509782       0.07454016       0.31045788 </v>
   <v>       0.75033990       0.99380801       0.03064963 </v>
   <v>       0.58279714       0.16052626       0.17149054 </v>
   <v>       0.91731287       0.32689769       0.31125979 </v>
   <v>       0.99974462       0.49285546       0.02920928 </v>
   <v>       0.33198047       0.66077687       0.16777516 </v>
   <v>       0.16772281       0.82605775       0.31154614 </v>
   <v>       0.00109100       0.74435055       0.02810917 </v>
   <v>       0.33349196       0.90933701       0.16783895 </v>
   <v>       0.16601270       0.58039554       0.31598990 </v>
   <v>       0.25007116       0.74357714       0.02818636 </v>
   <v>       0.08459922       0.91048042       0.16978392 </v>
   <v>       0.41018729       0.57913969       0.30328025 </v>
   <v>       0.24904571       0.49282572       0.02896259 </v>
   <v>       0.08460138       0.66070276       0.16886640 </v>
   <v>       0.41557993       0.82853812       0.31073815 </v>
   <v>       0.50032839       0.49326695       0.02887153 </v>
   <v>       0.83726968       0.66168843       0.16664619 </v>
   <v>       0.66878473       0.82978071       0.31161650 </v>
   <v>       0.50014280       0.74398794       0.02888695 </v>
   <v>       0.83320552       0.90850033       0.17027481 </v>
   <v>       0.67621344       0.58178159       0.30191321 </v>
   <v>       0.75095159       0.74448588       0.02872753 </v>
   <v>       0.58268294       0.90897436       0.17004683 </v>
   <v>       0.92637337       0.58216178       0.31140669 </v>
   <v>       0.75060234       0.49312157       0.02850067 </v>
   <v>       0.58364255       0.66025237       0.16718476 </v>
   <v>       0.92279632       0.83023274       0.31101212 </v>
   <v>       0.16651264       0.32704763       0.99466351 </v>
   <v>       0.00123828       0.99403848       0.13455324 </v>
   <v>       0.34215050       0.16553146       0.28183998 </v>
   <v>       0.41716817       0.32683296       0.99446977 </v>
   <v>       0.24961448       0.99292203       0.13242391 </v>
   <v>       0.08418224       0.16218421       0.27706969 </v>
   <v>       0.41723015       0.07783138       0.99464225 </v>
   <v>       0.24826612       0.24283336       0.13379058 </v>
   <v>       0.08561679       0.40888626       0.27756176 </v>
   <v>       0.16708635       0.07819813       0.99457951 </v>
   <v>       0.99798110       0.24217736       0.13543751 </v>
   <v>       0.32661379       0.40786155       0.27433620 </v>
   <v>       0.08276733       0.16041503       0.06609738 </v>
   <v>       0.41599200       0.32715141       0.20085588 </v>
   <v>       0.24137842       0.97514261       0.35073818 </v>
   <v>       0.33334377       0.16054846       0.06607804 </v>
   <v>       0.16444740       0.32595509       0.20532979 </v>
   <v>       0.98965489       0.98436904       0.34938274 </v>
   <v>       0.33334884       0.40968382       0.06514741 </v>
   <v>       0.17081398       0.07753043       0.20614371 </v>
   <v>       0.99873958       0.24259695       0.34764052 </v>
   <v>       0.08177379       0.40885313       0.06583659 </v>
   <v>       0.41517561       0.07488961       0.20345560 </v>
   <v>       0.24506759       0.25029560       0.36507113 </v>
   <v>       0.66670199       0.32670069       0.99404112 </v>
   <v>       0.50149761       0.99409516       0.13348709 </v>
   <v>       0.83650436       0.16153591       0.27232866 </v>
   <v>       0.91635954       0.32605511       0.99436692 </v>
   <v>       0.74995085       0.99429150       0.13502226 </v>
   <v>       0.58135078       0.16360022       0.28054393 </v>
   <v>       0.91619963       0.07681615       0.99517895 </v>
   <v>       0.74999977       0.24393293       0.13492412 </v>
   <v>       0.58096942       0.41542338       0.27958793 </v>
   <v>       0.66681299       0.07763530       0.99474386 </v>
   <v>       0.50067479       0.24296540       0.13397281 </v>
   <v>       0.83636353       0.41920348       0.27545264 </v>
   <v>       0.58381220       0.16066648       0.06616649 </v>
   <v>       0.91720486       0.33043288       0.20712444 </v>
   <v>       0.75561626       0.00284656       0.34604377 </v>
   <v>       0.83300855       0.16033780       0.06608422 </v>
   <v>       0.66739444       0.32933664       0.20481471 </v>
   <v>       0.50412373       0.98502373       0.34849265 </v>
   <v>       0.83345507       0.40968284       0.06502547 </v>
   <v>       0.66506417       0.07824451       0.20786206 </v>
   <v>       0.58378578       0.40928348       0.06544464 </v>
   <v>       0.91674283       0.07368604       0.20685392 </v>
   <v>       0.76057072       0.24307010       0.34705790 </v>
   <v>       0.16682248       0.82776197       0.99271050 </v>
   <v>       0.99954063       0.49396789       0.13299346 </v>
   <v>       0.33469443       0.66328489       0.27390386 </v>
   <v>       0.41717477       0.82724773       0.99336795 </v>
   <v>       0.24817916       0.49236483       0.13243946 </v>
   <v>       0.08290373       0.66180795       0.27491729 </v>
   <v>       0.41625428       0.57580884       0.99394514 </v>
   <v>       0.24941781       0.74310807       0.13170413 </v>
   <v>       0.07914211       0.90535974       0.27400646 </v>
   <v>       0.16607332       0.57479754       0.99364238 </v>
   <v>       0.00166427       0.74443608       0.13162300 </v>
   <v>       0.33270013       0.90442671       0.27116802 </v>
   <v>       0.08369646       0.66068245       0.06353557 </v>
   <v>       0.41682710       0.82597622       0.20293100 </v>
   <v>       0.25111365       0.48554899       0.36686599 </v>
   <v>       0.33306491       0.66062142       0.06382777 </v>
   <v>       0.16673065       0.82679494       0.20398039 </v>
   <v>       0.99263606       0.49349631       0.34946836 </v>
   <v>       0.33366496       0.90983965       0.06435428 </v>
   <v>       0.16606138       0.57667560       0.20367998 </v>
   <v>       0.99917102       0.74084468       0.34812852 </v>
   <v>       0.08335298       0.91092543       0.06407164 </v>
   <v>       0.41607955       0.57715974       0.19951935 </v>
   <v>       0.25741742       0.75380984       0.34985529 </v>
   <v>       0.66852012       0.82803256       0.99401443 </v>
   <v>       0.50198378       0.49426959       0.13247432 </v>
   <v>       0.83427469       0.65940807       0.27530734 </v>
   <v>       0.91659864       0.82784691       0.99327286 </v>
   <v>       0.75205098       0.49393158       0.13210654 </v>
   <v>       0.58185453       0.64760300       0.27625138 </v>
   <v>       0.91633882       0.57600065       0.99319251 </v>
   <v>       0.75082191       0.74274341       0.13216234 </v>
   <v>       0.58081163       0.90727994       0.27325765 </v>
   <v>       0.66643472       0.57551915       0.99392202 </v>
   <v>       0.50043662       0.74401633       0.13187077 </v>
   <v>       0.83503348       0.90492683       0.27494913 </v>
   <v>       0.58377723       0.66067263       0.06386003 </v>
   <v>       0.91675553       0.82455901       0.20449195 </v>
   <v>       0.73888067       0.49807766       0.36526569 </v>
   <v>       0.83459299       0.66107051       0.06363974 </v>
   <v>       0.66577860       0.82258946       0.20375821 </v>
   <v>       0.83391025       0.91060363       0.06614008 </v>
   <v>       0.67098290       0.57663725       0.20182286 </v>
   <v>       0.91915937       0.58009783       0.20463623 </v>
   <v>       0.58392481       0.91051142       0.06465662 </v>
   <v>       0.74866184       0.73321338       0.36146159 </v>
   <v>       0.49823777       0.74489751       0.36021779 </v>
   <v>       0.51718030       0.67500145       0.41732954 </v>
   <v>       0.66028896       0.65992304       0.42057491 </v>
   <v>       0.45667723       0.59394761       0.50240607 </v>
   <v>       0.48964642       0.50891892       0.41720109 </v>
   <v>       0.64615739       0.49104281       0.41849734 </v>
   <v>       0.48943311       0.37161887       0.45754268 </v>
   <v>       0.58123071       0.54206266       0.50011980 </v>
   <v>       0.32607032       0.48641831       0.42907564 </v>
   <v>       0.39085905       0.42338132       0.50809132 </v>
   <v>       0.32647563       0.33195155       0.42187776 </v>
   <v>       0.51710675       0.88695964       0.50192597 </v>
   <v>       0.43772186       0.83380539       0.49825384 </v>
   <v>       0.55626112       0.84864010       0.51612479 </v>
   <v>       0.52889073       0.94385410       0.53385810 </v>
   <v>       0.54544007       0.92140786       0.45958687 </v>
  </varray>
 </structure>
 <calculation>
  <scstep>
   <time name="dav">  106.91  107.29</time>
   <time name="total">  151.91  152.43</time>
   <energy>
    <i name="alphaZ">   3033.86958495 </i>
    <i name="ewald"> 281447.79476968 </i>
    <i name="hartreedc">-375342.41610882 </i>
    <i name="XCdc">   3189.99265883 </i>
    <i name="pawpsdc">  68565.16298528 </i>
    <i name="pawaedc"> -68156.09344703 </i>
    <i name="eentropy">     -0.21649545 </i>
    <i name="bandstr">   4130.48528728 </i>
    <i name="atom"> 103348.27171315 </i>
    <i name="e_fr_energy">  20216.85094788 </i>
    <i name="e_wo_entrp">  20217.06744333 </i>
    <i name="e_0_energy">  20216.95919561 </i>
   </energy>
  </scstep>
  <scstep>
   <time name="dav">  115.00  115.47</time>
   <time name="total">  115.00  115.47</time>
   <energy>
    <i name="e_fr_energy">   7562.62943276 </i>
    <i name="e_wo_entrp">   7563.69332507 </i>
    <i name="e_0_energy">   7563.16137891 </i>
   </energy>
  </scstep>
  <scstep>
   <time name="dav">  133.16  133.52</time>
   <time name="total">  133.16  133.53</time>
   <energy>
    <i name="e_fr_energy">    754.04109121 </i>
    <i name="e_wo_entrp">    755.83212616 </i>
    <i name="e_0_energy">    754.93660869 </i>
   </energy>
  </scstep>
  <scstep>
   <time name="dav">  138.06  138.52</time>
   <time name="total">  138.06  138.52</time>
   <energy>
    <i name="e_fr_energy">  -1164.18984429 </i>
    <i name="e_wo_entrp">  -1163.84294258 </i>
    <i name="e_0_energy">  -1164.01639344 </i>
   </energy>
  </scstep>
  <scstep>
   <time name="dav">  160.11  160.55</time>
   <time name="total">  168.70  169.15</time>
   <energy>
    <i name="e_fr_energy">  -1372.02603832 </i>
    <i name="e_wo_entrp">  -1371.64502098 </i>
    <i name="e_0_energy">  -1371.83552965 </i>
   </energy>
  </scstep>
  <scstep>
   <time name="dav">  139.97  140.91</time>
   <time name="total">  193.24  194.67</time>
   <energy>
    <i name="e_fr_energy">  -1037.37834940 </i>
    <i name="e_wo_entrp">  -1035.95653432 </i>
    <i name="e_0_energy">  -1036.66744186 </i>
   </energy>
  </scstep>
  <scstep>
   <time name="dav">  152.20  152.60</time>
   <time name="total">  205.42  205.97</time>
   <energy>
    <i name="e_fr_energy">  -1177.40973029 </i>
    <i name="e_wo_entrp">  -1176.74935134 </i>
    <i name="e_0_energy">  -1177.07954082 </i>
   </energy>
  </scstep>
  <scstep>
   <time name="dav">  134.60  134.94</time>
   <time name="total">  187.28  187.77</time>
   <energy>
    <i name="e_fr_energy">   -959.71338856 </i>
    <i name="e_wo_entrp">   -959.66353270 </i>
    <i name="e_0_energy">   -959.68846063 </i>
   </energy>
  </scstep>
  <scstep>
   <time name="dav">  152.08  152.58</time>
   <time name="total">  205.24  205.88</time>
   <energy>
    <i name="e_fr_energy">  -1001.77846091 </i>
    <i name="e_wo_entrp">  -1001.48182108 </i>
    <i name="e_0_energy">  -1001.63014100 </i>
   </energy>
  </scstep>
  <scstep>
   <time name="dav">  166.41  166.84</time>
   <time name="total">  219.73  220.48</time>
   <energy>
    <i name="e_fr_energy">  -1022.26079277 </i>
    <i name="e_wo_entrp">  -1021.38244808 </i>
    <i name="e_0_energy">  -1021.82162043 </i>
   </energy>
  </scstep>
  <scstep>
   <time name="dav">  142.12  142.48</time>
   <time name="total">  194.85  195.38</time>
   <energy>
    <i name="e_fr_energy">   -969.57068984 </i>
    <i name="e_wo_entrp">   -969.50338912 </i>
    <i name="e_0_energy">   -969.53703948 </i>
   </energy>
  </scstep>
  <scstep>
   <time name="dav">  132.66  133.01</time>
   <time name="total">  185.57  186.07</time>
   <energy>
    <i name="e_fr_energy">   -905.19815224 </i>
    <i name="e_wo_entrp">   -904.93691955 </i>
    <i name="e_0_energy">   -905.06753589 </i>
   </energy>
  </scstep>
  <scstep>
   <time name="dav">  159.50  159.92</time>
   <time name="total">  212.30  212.87</time>
   <energy>
    <i name="e_fr_energy">   -870.60344813 </i>
    <i name="e_wo_entrp">   -870.46246214 </i>
    <i name="e_0_energy">   -870.53295514 </i>
   </energy>
  </scstep>
  <scstep>
   <time name="dav">  157.94  158.45</time>
   <time name="total">  210.75  211.41</time>
   <energy>
    <i name="e_fr_energy">   -842.68662360 </i>
    <i name="e_wo_entrp">   -842.60628190 </i>
    <i name="e_0_energy">   -842.64645275 </i>
   </energy>
  </scstep>
  <scstep>
   <time name="dav">  147.01  147.39</time>
   <time name="total">  199.98  200.50</time>
   <energy>
    <i name="e_fr_energy">   -794.55255844 </i>
    <i name="e_wo_entrp">   -794.47532050 </i>
    <i name="e_0_energy">   -794.51393947 </i>
   </energy>
  </scstep>
  <scstep>
   <time name="dav">  151.62  152.00</time>
   <time name="total">  204.53  205.06</time>
   <energy>
    <i name="e_fr_energy">   -760.79773522 </i>
    <i name="e_wo_entrp">   -760.67458887 </i>
    <i name="e_0_energy">   -760.73616205 </i>
   </energy>
  </scstep>
  <scstep>
   <time name="dav">  168.71  169.14</time>
   <time name="total">  221.56  222.14</time>
   <energy>
    <i name="e_fr_energy">   -739.78462509 </i>
    <i name="e_wo_entrp">   -739.64496206 </i>
    <i name="e_0_energy">   -739.71479357 </i>
   </energy>
  </scstep>
  <scstep>
   <time name="dav">  176.24  176.71</time>
   <time name="total">  229.76  230.36</time>
   <energy>
    <i name="e_fr_energy">   -730.75497381 </i>
    <i name="e_wo_entrp">   -730.62057196 </i>
    <i name="e_0_energy">   -730.68777289 </i>
   </energy>
  </scstep>
  <scstep>
   <time name="dav">  175.77  176.57</time>
   <time name="total">  229.10  230.16</time>
   <energy>
    <i name="e_fr_energy">   -730.33798674 </i>
    <i name="e_wo_entrp">   -730.20515863 </i>
    <i name="e_0_energy">   -730.27157269 </i>
   </energy>
  </scstep>
  <scstep>
   <time name="dav">  163.93  164.36</time>
   <time name="total">  217.75  218.59</time>
   <energy>
    <i name="e_fr_energy">   -739.49481030 </i>
    <i name="e_wo_entrp">   -738.71849819 </i>
    <i name="e_0_energy">   -739.10665424 </i>
   </energy>
  </scstep>
  <scstep>
   <time name="dav">  154.67  155.06</time>
   <time name="total">  208.45  209.00</time>
   <energy>
    <i name="e_fr_energy">   -741.14165479 </i>
    <i name="e_wo_entrp">   -740.43170553 </i>
    <i name="e_0_energy">   -740.78668016 </i>
   </energy>
  </scstep>
  <scstep>
   <time name="dav">  150.83  151.35</time>
   <time name="total">  204.10  204.76</time>
   <energy>
    <i name="e_fr_energy">   -751.39934876 </i>
    <i name="e_wo_entrp">   -750.81779559 </i>
    <i name="e_0_energy">   -751.10857218 </i>
   </energy>
  </scstep>
  <scstep>
   <time name="dav">  150.54  150.93</time>
   <time name="total">  203.81  204.36</time>
   <energy>
    <i name="e_fr_energy">   -761.89418923 </i>
    <i name="e_wo_entrp">   -761.36277558 </i>
    <i name="e_0_energy">   -761.62848240 </i>
   </energy>
  </scstep>
  <scstep>
   <time name="dav">  153.60  154.00</time>
   <time name="total">  206.99  207.54</time>
   <energy>
    <i name="e_fr_energy">   -768.21494374 </i>
    <i name="e_wo_entrp">   -767.76820440 </i>
    <i name="e_0_energy">   -767.99157407 </i>
   </energy>
  </scstep>
  <scstep>
   <time name="dav">  154.11  154.51</time>
   <time name="total">  207.36  207.91</time>
   <energy>
    <i name="e_fr_energy">   -773.93750664 </i>
    <i name="e_wo_entrp">   -773.56397640 </i>
    <i name="e_0_energy">   -773.75074152 </i>
   </energy>
  </scstep>
  <scstep>
   <time name="dav">  149.45  149.83</time>
   <time name="total">  202.79  203.34</time>
   <energy>
    <i name="e_fr_energy">   -771.66166308 </i>
    <i name="e_wo_entrp">   -771.23210098 </i>
    <i name="e_0_energy">   -771.44688203 </i>
   </energy>
  </scstep>
  <scstep>
   <time name="dav">  160.27  160.69</time>
   <time name="total">  213.59  214.18</time>
   <energy>
    <i name="e_fr_energy">   -770.59731789 </i>
    <i name="e_wo_entrp">   -770.14656664 </i>
    <i name="e_0_energy">   -770.37194227 </i>
   </energy>
  </scstep>
  <scstep>
   <time name="dav">  176.53  176.99</time>
   <time name="total">  229.96  230.57</time>
   <energy>
    <i name="e_fr_energy">   -770.80083043 </i>
    <i name="e_wo_entrp">   -770.36043034 </i>
    <i name="e_0_energy">   -770.58063039 </i>
   </energy>
  </scstep>
  <scstep>
   <time name="dav">  162.61  163.04</time>
   <time name="total">  216.15  216.75</time>
   <energy>
    <i name="e_fr_energy">   -770.02918998 </i>
    <i name="e_wo_entrp">   -769.63025655 </i>
    <i name="e_0_energy">   -769.82972327 </i>
   </energy>
  </scstep>
  <scstep>
   <time name="dav">  135.31  136.64</time>
   <time name="total">  188.73  190.30</time>
   <energy>
    <i name="e_fr_energy">   -770.05799736 </i>
    <i name="e_wo_entrp">   -769.64117333 </i>
    <i name="e_0_energy">   -769.84958534 </i>
   </energy>
  </scstep>
  <scstep>
   <time name="dav">  167.63  168.06</time>
   <time name="total">  221.06  221.63</time>
   <energy>
    <i name="e_fr_energy">   -770.88311234 </i>
    <i name="e_wo_entrp">   -770.47597491 </i>
    <i name="e_0_energy">   -770.67954363 </i>
   </energy>
  </scstep>
  <scstep>
   <time name="dav">  124.17  124.50</time>
   <time name="total">  177.50  177.97</time>
   <energy>
    <i name="e_fr_energy">   -770.65911459 </i>
    <i name="e_wo_entrp">   -770.25000354 </i>
    <i name="e_0_energy">   -770.45455907 </i>
   </energy>
  </scstep>
  <scstep>
   <time name="dav">  150.97  151.37</time>
   <time name="total">  204.42  204.97</time>
   <energy>
    <i name="e_fr_energy">   -769.74131467 </i>
    <i name="e_wo_entrp">   -769.26175465 </i>
    <i name="e_0_energy">   -769.50153466 </i>
   </energy>
  </scstep>
  <scstep>
   <time name="dav">  153.35  153.76</time>
   <time name="total">  206.92  207.49</time>
   <energy>
    <i name="e_fr_energy">   -771.17053091 </i>
    <i name="e_wo_entrp">   -770.68157615 </i>
    <i name="e_0_energy">   -770.92605353 </i>
   </energy>
  </scstep>
  <scstep>
   <time name="dav">  160.70  161.13</time>
   <time name="total">  214.31  214.89</time>
   <energy>
    <i name="e_fr_energy">   -772.21124411 </i>
    <i name="e_wo_entrp">   -771.71893361 </i>
    <i name="e_0_energy">   -771.96508886 </i>
   </energy>
  </scstep>
  <scstep>
   <time name="dav">  152.44  153.27</time>
   <time name="total">  206.03  207.00</time>
   <energy>
    <i name="e_fr_energy">   -773.65344819 </i>
    <i name="e_wo_entrp">   -773.05379575 </i>
    <i name="e_0_energy">   -773.35362197 </i>
   </energy>
  </scstep>
  <scstep>
   <time name="dav">  160.28  160.71</time>
   <time name="total">  213.85  214.42</time>
   <energy>
    <i name="e_fr_energy">   -774.81383785 </i>
    <i name="e_wo_entrp">   -774.21820778 </i>
    <i name="e_0_energy">   -774.51602281 </i>
   </energy>
  </scstep>
  <scstep>
   <time name="dav">  127.79  128.13</time>
   <time name="total">  181.37  181.85</time>
   <energy>
    <i name="e_fr_energy">   -774.58015481 </i>
    <i name="e_wo_entrp">   -773.96431124 </i>
    <i name="e_0_energy">   -774.27223303 </i>
   </energy>
  </scstep>
  <scstep>
   <time name="dav">  160.32  160.84</time>
   <time name="total">  214.06  214.73</time>
   <energy>
    <i name="e_fr_energy">   -775.13924296 </i>
    <i name="e_wo_entrp">   -774.48856001 </i>
    <i name="e_0_energy">   -774.81390149 </i>
   </energy>
  </scstep>
  <scstep>
   <time name="dav">  121.34  121.66</time>
   <time name="total">  175.02  175.48</time>
   <energy>
    <i name="e_fr_energy">   -775.12262248 </i>
    <i name="e_wo_entrp">   -774.47285031 </i>
    <i name="e_0_energy">   -774.79773639 </i>
   </energy>
  </scstep>
  <scstep>
   <time name="dav">  165.87  166.31</time>
   <time name="total">  219.77  220.35</time>
   <energy>
    <i name="e_fr_energy">   -775.10493877 </i>
    <i name="e_wo_entrp">   -774.45475242 </i>
    <i name="e_0_energy">   -774.77984560 </i>
   </energy>
  </scstep>
  <scstep>
   <time name="dav">  156.08  156.48</time>
   <time name="total">  210.18  210.73</time>
   <energy>
    <i name="e_fr_energy">   -776.37047515 </i>
    <i name="e_wo_entrp">   -775.73713177 </i>
    <i name="e_0_energy">   -776.05380346 </i>
   </energy>
  </scstep>
  <scstep>
   <time name="dav">  143.10  143.47</time>
   <time name="total">  197.00  197.52</time>
   <energy>
    <i name="e_fr_energy">   -775.71597253 </i>
    <i name="e_wo_entrp">   -775.09083822 </i>
    <i name="e_0_energy">   -775.40340538 </i>
   </energy>
  </scstep>
  <scstep>
   <time name="dav">  134.41  134.77</time>
   <time name="total">  188.34  188.87</time>
   <energy>
    <i name="e_fr_energy">   -776.06005741 </i>
    <i name="e_wo_entrp">   -775.38307587 </i>
    <i name="e_0_energy">   -775.72156664 </i>
   </energy>
  </scstep>
  <scstep>
   <time name="dav">  144.53  144.91</time>
   <time name="total">  198.47  199.00</time>
   <energy>
    <i name="e_fr_energy">   -775.84218789 </i>
    <i name="e_wo_entrp">   -775.15896995 </i>
    <i name="e_0_energy">   -775.50057892 </i>
   </energy>
  </scstep>
  <scstep>
   <time name="dav">  114.06  114.35</time>
   <time name="total">  168.27  168.72</time>
   <energy>
    <i name="e_fr_energy">   -775.84289171 </i>
    <i name="e_wo_entrp">   -775.15955147 </i>
    <i name="e_0_energy">   -775.50122159 </i>
   </energy>
  </scstep>
  <scstep>
   <time name="dav">  154.20  154.59</time>
   <time name="total">  208.36  208.90</time>
   <energy>
    <i name="e_fr_energy">   -775.81337378 </i>
    <i name="e_wo_entrp">   -775.12100155 </i>
    <i name="e_0_energy">   -775.46718767 </i>
   </energy>
  </scstep>
  <scstep>
   <time name="dav">  146.11  146.48</time>
   <time name="total">  200.12  200.64</time>
   <energy>
    <i name="e_fr_energy">   -775.99602280 </i>
    <i name="e_wo_entrp">   -775.33977776 </i>
    <i name="e_0_energy">   -775.66790028 </i>
   </energy>
  </scstep>
  <scstep>
   <time name="dav">  138.68  139.05</time>
   <time name="total">  192.84  193.36</time>
   <energy>
    <i name="e_fr_energy">   -776.00278067 </i>
    <i name="e_wo_entrp">   -775.32175541 </i>
    <i name="e_0_energy">   -775.66226804 </i>
   </energy>
  </scstep>
  <scstep>
   <time name="dav">  135.73  136.08</time>
   <time name="total">  189.70  190.20</time>
   <energy>
    <i name="e_fr_energy">   -776.05190245 </i>
    <i name="e_wo_entrp">   -775.37095860 </i>
    <i name="e_0_energy">   -775.71143053 </i>
   </energy>
  </scstep>
  <scstep>
   <time name="dav">  154.63  155.03</time>
   <time name="total">  207.92  208.52</time>
   <energy>
    <i name="e_fr_energy">   -754.03740919 </i>
    <i name="e_wo_entrp">   -753.44281987 </i>
    <i name="e_0_energy">   -753.74011453 </i>
   </energy>
  </scstep>
  <scstep>
   <time name="dav">  164.69  165.23</time>
   <time name="total">  217.87  218.88</time>
   <energy>
    <i name="e_fr_energy">   -759.93150820 </i>
    <i name="e_wo_entrp">   -759.43825886 </i>
    <i name="e_0_energy">   -759.68488353 </i>
   </energy>
  </scstep>
  <scstep>
   <time name="dav">  160.86  161.28</time>
   <time name="total">  214.07  214.64</time>
   <energy>
    <i name="e_fr_energy">   -771.72865356 </i>
    <i name="e_wo_entrp">   -771.44077324 </i>
    <i name="e_0_energy">   -771.58471340 </i>
   </energy>
  </scstep>
  <scstep>
   <time name="dav">  166.04  166.47</time>
   <time name="total">  219.42  220.00</time>
   <energy>
    <i name="e_fr_energy">   -774.05619311 </i>
    <i name="e_wo_entrp">   -773.81991758 </i>
    <i name="e_0_energy">   -773.93805534 </i>
   </energy>
  </scstep>
  <scstep>
   <time name="dav">  161.98  162.39</time>
   <time name="total">  215.11  215.68</time>
   <energy>
    <i name="e_fr_energy">   -775.08236198 </i>
    <i name="e_wo_entrp">   -774.95512103 </i>
    <i name="e_0_energy">   -775.01874151 </i>
   </energy>
  </scstep>
  <scstep>
   <time name="dav">  164.86  165.29</time>
   <time name="total">  218.96  219.53</time>
   <energy>
    <i name="e_fr_energy">   -796.98190198 </i>
    <i name="e_wo_entrp">   -796.44828814 </i>
    <i name="e_0_energy">   -796.71509506 </i>
   </energy>
  </scstep>
  <scstep>
   <time name="dav">  165.54  166.06</time>
   <time name="total">  218.83  219.50</time>
   <energy>
    <i name="e_fr_energy">   -789.95816062 </i>
    <i name="e_wo_entrp">   -789.69689810 </i>
    <i name="e_0_energy">   -789.82752936 </i>
   </energy>
  </scstep>
  <scstep>
   <time name="dav">  157.94  158.35</time>
   <time name="total">  211.29  211.84</time>
   <energy>
    <i name="e_fr_energy">   -811.76130655 </i>
    <i name="e_wo_entrp">   -811.56213726 </i>
    <i name="e_0_energy">   -811.66172191 </i>
   </energy>
  </scstep>
  <scstep>
   <time name="dav">  155.92  156.32</time>
   <time name="total">  209.18  209.74</time>
   <energy>
    <i name="e_fr_energy">   -823.63955403 </i>
    <i name="e_wo_entrp">   -823.45048837 </i>
    <i name="e_0_energy">   -823.54502120 </i>
   </energy>
  </scstep>
  <scstep>
   <time name="dav">  152.42  152.81</time>
   <time name="total">  205.65  206.19</time>
   <energy>
    <i name="e_fr_energy">   -856.06989515 </i>
    <i name="e_wo_entrp">   -855.75752609 </i>
    <i name="e_0_energy">   -855.91371062 </i>
   </energy>
  </scstep>
  <scstep>
   <time name="dav">  162.71  163.17</time>
   <time name="total">  215.97  216.57</time>
   <energy>
    <i name="e_fr_energy">   -856.41769324 </i>
    <i name="e_wo_entrp">   -856.11467271 </i>
    <i name="e_0_energy">   -856.26618298 </i>
   </energy>
  </scstep>
  <scstep>
   <time name="dav">  152.71  153.09</time>
   <time name="total">  205.87  206.40</time>
   <energy>
    <i name="e_fr_energy">   -875.22428947 </i>
    <i name="e_wo_entrp">   -874.93338821 </i>
    <i name="e_0_energy">   -875.07883884 </i>
   </energy>
  </scstep>
  <scstep>
   <time name="dav">  152.06  152.43</time>
   <time name="total">  205.39  205.90</time>
   <energy>
    <i name="e_fr_energy">   -876.25416666 </i>
    <i name="e_wo_entrp">   -876.00581263 </i>
    <i name="e_0_energy">   -876.12998965 </i>
   </energy>
  </scstep>
  <scstep>
   <time name="dav">  171.59  172.01</time>
   <time name="total">  224.89  225.46</time>
   <energy>
    <i name="e_fr_energy">   -876.16114540 </i>
    <i name="e_wo_entrp">   -875.90921553 </i>
    <i name="e_0_energy">   -876.03518047 </i>
   </energy>
  </scstep>
  <scstep>
   <time name="dav">  174.19  174.64</time>
   <time name="total">  227.29  227.88</time>
   <energy>
    <i name="e_fr_energy">   -876.35856910 </i>
    <i name="e_wo_entrp">   -876.08012409 </i>
    <i name="e_0_energy">   -876.21934660 </i>
   </energy>
  </scstep>
  <scstep>
   <time name="dav">  162.31  162.72</time>
   <time name="total">  215.55  216.11</time>
   <energy>
    <i name="e_fr_energy">   -870.09094569 </i>
    <i name="e_wo_entrp">   -869.86287683 </i>
    <i name="e_0_energy">   -869.97691126 </i>
   </energy>
  </scstep>
  <scstep>
   <time name="dav">  155.27  155.66</time>
   <time name="total">  208.77  209.34</time>
   <energy>
    <i name="e_fr_energy">   -882.08434180 </i>
    <i name="e_wo_entrp">   -881.89764723 </i>
    <i name="e_0_energy">   -881.99099451 </i>
   </energy>
  </scstep>
  <scstep>
   <time name="dav">  160.16  160.59</time>
   <time name="total">  213.32  213.90</time>
   <energy>
    <i name="e_fr_energy">   -887.76823113 </i>
    <i name="e_wo_entrp">   -887.51783207 </i>
    <i name="e_0_energy">   -887.64303160 </i>
   </energy>
  </scstep>
  <scstep>
   <time name="dav">  156.70  157.11</time>
   <time name="total">  209.80  210.35</time>
   <energy>
    <i name="e_fr_energy">   -893.50704766 </i>
    <i name="e_wo_entrp">   -893.31706271 </i>
    <i name="e_0_energy">   -893.41205519 </i>
   </energy>
  </scstep>
  <scstep>
   <time name="dav">  141.82  142.21</time>
   <time name="total">  194.91  195.44</time>
   <energy>
    <i name="e_fr_energy">   -893.71474116 </i>
    <i name="e_wo_entrp">   -893.53377398 </i>
    <i name="e_0_energy">   -893.62425757 </i>
   </energy>
  </scstep>
  <scstep>
   <time name="dav">  165.42  165.86</time>
   <time name="total">  218.54  219.13</time>
   <energy>
    <i name="e_fr_energy">   -886.85615726 </i>
    <i name="e_wo_entrp">   -886.65481094 </i>
    <i name="e_0_energy">   -886.75548410 </i>
   </energy>
  </scstep>
  <scstep>
   <time name="dav">  162.81  163.24</time>
   <time name="total">  215.90  216.49</time>
   <energy>
    <i name="e_fr_energy">   -889.20515847 </i>
    <i name="e_wo_entrp">   -888.98809250 </i>
    <i name="e_0_energy">   -889.09662548 </i>
   </energy>
  </scstep>
  <scstep>
   <time name="dav">  162.55  162.99</time>
   <time name="total">  215.63  216.21</time>
   <energy>
    <i name="e_fr_energy">   -891.81229397 </i>
    <i name="e_wo_entrp">   -891.62772227 </i>
    <i name="e_0_energy">   -891.72000812 </i>
   </energy>
  </scstep>
  <scstep>
   <time name="dav">  146.02  146.46</time>
   <time name="total">  199.12  199.69</time>
   <energy>
    <i name="e_fr_energy">   -891.80079675 </i>
    <i name="e_wo_entrp">   -891.61654138 </i>
    <i name="e_0_energy">   -891.70866906 </i>
   </energy>
  </scstep>
  <scstep>
   <time name="dav">  180.84  181.31</time>
   <time name="total">  233.90  234.51</time>
   <energy>
    <i name="e_fr_energy">   -891.81105612 </i>
    <i name="e_wo_entrp">   -891.62677680 </i>
    <i name="e_0_energy">   -891.71891646 </i>
   </energy>
  </scstep>
  <scstep>
   <time name="dav">  163.18  163.59</time>
   <time name="total">  216.27  216.82</time>
   <energy>
    <i name="e_fr_energy">   -887.35365063 </i>
    <i name="e_wo_entrp">   -887.18514112 </i>
    <i name="e_0_energy">   -887.26939587 </i>
   </energy>
  </scstep>
  <scstep>
   <time name="dav">  160.67  161.09</time>
   <time name="total">  213.84  214.41</time>
   <energy>
    <i name="e_fr_energy">   -891.69291660 </i>
    <i name="e_wo_entrp">   -891.54870664 </i>
    <i name="e_0_energy">   -891.62081162 </i>
   </energy>
  </scstep>
  <scstep>
   <time name="dav">  159.42  159.83</time>
   <time name="total">  212.55  213.11</time>
   <energy>
    <i name="e_fr_energy">   -894.66460470 </i>
    <i name="e_wo_entrp">   -894.52844797 </i>
    <i name="e_0_energy">   -894.59652634 </i>
   </energy>
  </scstep>
  <scstep>
   <time name="dav">  160.47  161.00</time>
   <time name="total">  213.58  214.26</time>
   <energy>
    <i name="e_fr_energy">   -900.96039389 </i>
    <i name="e_wo_entrp">   -900.81375424 </i>
    <i name="e_0_energy">   -900.88707406 </i>
   </energy>
  </scstep>
  <scstep>
   <time name="dav">  164.32  164.75</time>
   <time name="total">  217.63  218.22</time>
   <energy>
    <i name="e_fr_energy">   -904.93015165 </i>
    <i name="e_wo_entrp">   -904.75151263 </i>
    <i name="e_0_energy">   -904.84083214 </i>
   </energy>
  </scstep>
  <scstep>
   <time name="dav">  153.06  153.46</time>
   <time name="total">  206.41  206.96</time>
   <energy>
    <i name="e_fr_energy">   -890.47013034 </i>
    <i name="e_wo_entrp">   -890.27113372 </i>
    <i name="e_0_energy">   -890.37063203 </i>
   </energy>
  </scstep>
  <scstep>
   <time name="dav">  150.88  151.28</time>
   <time name="total">  203.96  204.52</time>
   <energy>
    <i name="e_fr_energy">   -891.44432031 </i>
    <i name="e_wo_entrp">   -891.27516402 </i>
    <i name="e_0_energy">   -891.35974217 </i>
   </energy>
  </scstep>
  <scstep>
   <time name="dav">  163.14  163.57</time>
   <time name="total">  216.19  216.76</time>
   <energy>
    <i name="e_fr_energy">   -887.02825457 </i>
    <i name="e_wo_entrp">   -886.84432533 </i>
    <i name="e_0_energy">   -886.93628995 </i>
   </energy>
  </scstep>
  <scstep>
   <time name="dav">  170.55  170.99</time>
   <time name="total">  223.77  224.36</time>
   <energy>
    <i name="e_fr_energy">   -890.73429521 </i>
    <i name="e_wo_entrp">   -890.59538357 </i>
    <i name="e_0_energy">   -890.66483939 </i>
   </energy>
  </scstep>
  <scstep>
   <time name="dav">  165.39  165.81</time>
   <time name="total">  218.45  219.03</time>
   <energy>
    <i name="e_fr_energy">   -894.78050505 </i>
    <i name="e_wo_entrp">   -894.61317195 </i>
    <i name="e_0_energy">   -894.69683850 </i>
   </energy>
  </scstep>
  <scstep>
   <time name="dav">  165.12  165.93</time>
   <time name="total">  218.38  219.34</time>
   <energy>
    <i name="e_fr_energy">   -903.30562820 </i>
    <i name="e_wo_entrp">   -902.85756703 </i>
    <i name="e_0_energy">   -903.08159761 </i>
   </energy>
  </scstep>
  <scstep>
   <time name="dav">  150.11  150.60</time>
   <time name="total">  203.17  204.15</time>
   <energy>
    <i name="e_fr_energy">   -905.51233815 </i>
    <i name="e_wo_entrp">   -905.35696660 </i>
    <i name="e_0_energy">   -905.43465237 </i>
   </energy>
  </scstep>
  <scstep>
   <time name="dav">  163.73  164.17</time>
   <time name="total">  216.92  217.51</time>
   <energy>
    <i name="e_fr_energy">   -919.74050451 </i>
    <i name="e_wo_entrp">   -919.59995979 </i>
    <i name="e_0_energy">   -919.67023215 </i>
   </energy>
  </scstep>
  <scstep>
   <time name="dav">  163.35  163.76</time>
   <time name="total">  216.70  217.26</time>
   <energy>
    <i name="e_fr_energy">   -933.63651953 </i>
    <i name="e_wo_entrp">   -933.53742619 </i>
    <i name="e_0_energy">   -933.58697286 </i>
   </energy>
  </scstep>
  <scstep>
   <time name="dav">  157.52  157.92</time>
   <time name="total">  210.58  211.15</time>
   <energy>
    <i name="e_fr_energy">   -954.10290138 </i>
    <i name="e_wo_entrp">   -954.01319804 </i>
    <i name="e_0_energy">   -954.05804971 </i>
   </energy>
  </scstep>
  <scstep>
   <time name="dav">  161.97  162.39</time>
   <time name="total">  215.09  215.74</time>
   <energy>
    <i name="e_fr_energy">   -971.06744097 </i>
    <i name="e_wo_entrp">   -970.95548926 </i>
    <i name="e_0_energy">   -971.01146512 </i>
   </energy>
  </scstep>
  <scstep>
   <time name="dav">  155.47  155.89</time>
   <time name="total">  208.98  209.55</time>
   <energy>
    <i name="e_fr_energy">   -988.97863075 </i>
    <i name="e_wo_entrp">   -988.89193000 </i>
    <i name="e_0_energy">   -988.93528037 </i>
   </energy>
  </scstep>
  <scstep>
   <time name="dav">  151.13  151.52</time>
   <time name="total">  204.28  204.80</time>
   <energy>
    <i name="e_fr_energy">  -1007.82606215 </i>
    <i name="e_wo_entrp">  -1007.65609519 </i>
    <i name="e_0_energy">  -1007.74107867 </i>
   </energy>
  </scstep>
  <scstep>
   <time name="dav">  172.69  173.14</time>
   <time name="total">  225.80  226.41</time>
   <energy>
    <i name="e_fr_energy">  -1014.23704354 </i>
    <i name="e_wo_entrp">  -1014.09688307 </i>
    <i name="e_0_energy">  -1014.16696331 </i>
   </energy>
  </scstep>
  <scstep>
   <time name="dav">  159.63  160.07</time>
   <time name="total">  212.74  213.32</time>
   <energy>
    <i name="e_fr_energy">  -1015.84814689 </i>
    <i name="e_wo_entrp">  -1015.71546920 </i>
    <i name="e_0_energy">  -1015.78180805 </i>
   </energy>
  </scstep>
  <scstep>
   <time name="dav">  164.06  164.61</time>
   <time name="total">  217.17  217.87</time>
   <energy>
    <i name="e_fr_energy">  -1009.69329144 </i>
    <i name="e_wo_entrp">  -1009.55947993 </i>
    <i name="e_0_energy">  -1009.62638568 </i>
   </energy>
  </scstep>
  <scstep>
   <time name="dav">  159.86  160.28</time>
   <time name="total">  212.93  213.50</time>
   <energy>
    <i name="e_fr_energy">  -1017.24174933 </i>
    <i name="e_wo_entrp">  -1017.10085695 </i>
    <i name="e_0_energy">  -1017.17130314 </i>
   </energy>
  </scstep>
  <scstep>
   <time name="dav">  159.67  160.11</time>
   <time name="total">  212.78  213.36</time>
   <energy>
    <i name="e_fr_energy">  -1023.68589327 </i>
    <i name="e_wo_entrp">  -1023.51512708 </i>
    <i name="e_0_energy">  -1023.60051017 </i>
   </energy>
  </scstep>
  <scstep>
   <time name="dav">  157.17  157.58</time>
   <time name="total">  210.30  210.91</time>
   <energy>
    <i name="e_fr_energy">  -1030.19036604 </i>
    <i name="e_wo_entrp">  -1030.03046707 </i>
    <i name="e_0_energy">  -1030.11041656 </i>
   </energy>
  </scstep>
  <scstep>
   <time name="dav">  154.26  154.66</time>
   <time name="total">  198.79  199.32</time>
   <energy>
    <i name="alphaZ">   3033.86958495 </i>
    <i name="ewald"> 281447.79476968 </i>
    <i name="hartreedc">-379571.94939504 </i>
    <i name="XCdc">   3331.63168576 </i>
    <i name="pawpsdc">  75346.99772800 </i>
    <i name="pawaedc"> -74865.45998672 </i>
    <i name="eentropy">     -0.14073464 </i>
    <i name="bandstr"> -13111.18826675 </i>
    <i name="atom"> 103348.27171315 </i>
    <i name="e_fr_energy">  -1040.17290159 </i>
    <i name="e_wo_entrp">  -1040.03216695 </i>
    <i name="e_0_energy">  -1040.10253427 </i>
   </energy>
  </scstep>
  <dipole>
   <v name="dipole">      0.00000000       0.00000000      -3.11577238 </v>
   <i name="Tr[quadrupol]"> -54181.94764196 </i>
   <i name="Echarged">      0.00000000 </i>
   <i name="Edipol_quadrupol">      0.00000000 </i>
   <i name="Eion">      0.00000000 </i>
  </dipole>
  <structure>
   <crystal>
    <varray name="basis" >
     <v>      15.52620029       0.00000000       0.00000000 </v>
     <v>      -7.76321928      13.44600078       0.00000000 </v>
     <v>       0.00000000       0.00000000      22.92320061 </v>
    </varray>
    <i name="volume">   4785.56888143 </i>
    <varray name="rec_basis" >
     <v>       0.06440726       0.03718635       0.00000000 </v>
     <v>       0.00000000       0.07437156       0.00000000 </v>
     <v>       0.00000000       0.00000000       0.04362393 </v>
[...]
       <r>   -22.2500     0.0000    48.0000 </r>
       <r>   -22.1173     0.0000    48.0000 </r>
       <r>   -21.9847     0.0000    48.0000 </r>
       <r>   -21.8520     0.0000    48.0000 </r>
       <r>   -21.7193     0.0000    48.0000 </r>
       <r>   -21.5867     0.0000    48.0000 </r>
       <r>   -21.4540     0.0000    48.0000 </r>
       <r>   -21.3213     0.0000    48.0000 </r>
       <r>   -21.1887     0.0000    48.0000 </r>
       <r>   -21.0560     0.0000    48.0000 </r>
       <r>   -20.9234     0.0000    48.0000 </r>
       <r>   -20.7907     0.0000    48.0000 </r>
       <r>   -20.6580     0.0000    48.0000 </r>
       <r>   -20.5254     0.0000    48.0000 </r>
       <r>   -20.3927     0.0001    48.0000 </r>
       <r>   -20.2600     0.1154    48.0153 </r>
       <r>   -20.1274     5.0747    48.6886 </r>
       <r>   -19.9947    14.9654    50.6739 </r>
       <r>   -19.8621    13.5645    52.4734 </r>
       <r>   -19.7294    50.4095    59.1609 </r>
       <r>   -19.5967    83.7481    70.2712 </r>
       <r>   -19.4641    46.5662    76.4488 </r>
       <r>   -19.3314    43.1184    82.1690 </r>
       <r>   -19.1987    35.3480    86.8583 </r>
       <r>   -19.0661    24.5465    90.1148 </r>
       <r>   -18.9334    41.3442    95.5996 </r>
       <r>   -18.8008    32.0656    99.8535 </r>
       <r>   -18.6681    25.3416   103.2154 </r>
       <r>   -18.5354    38.1334   108.2743 </r>
       <r>   -18.4028    48.6116   114.7232 </r>
       <r>   -18.2701    30.2739   118.7395 </r>
       <r>   -18.1374    24.0833   121.9344 </r>
       <r>   -18.0048    26.6617   125.4714 </r>
       <r>   -17.8721    26.3846   128.9717 </r>
       <r>   -17.7395    10.6132   130.3797 </r>
       <r>   -17.6068     9.4189   131.6292 </r>
       <r>   -17.4741    39.3055   136.8436 </r>
       <r>   -17.3415   101.2184   150.2715 </r>
       <r>   -17.2088   129.7273   167.4815 </r>
       <r>   -17.0761    98.0231   180.4855 </r>
       <r>   -16.9435    53.8551   187.6301 </r>
       <r>   -16.8108    26.6126   191.1606 </r>
       <r>   -16.6781    24.3588   194.3921 </r>
       <r>   -16.5455    23.6200   197.5256 </r>
       <r>   -16.4128    26.4601   201.0359 </r>
       <r>   -16.2802    36.1759   205.8351 </r>
       <r>   -16.1475    30.0544   209.8222 </r>
       <r>   -16.0148    27.2103   213.4320 </r>
       <r>   -15.8822    24.6600   216.7035 </r>
       <r>   -15.7495    36.0220   221.4823 </r>
       <r>   -15.6168    33.5767   225.9366 </r>
       <r>   -15.4842    36.1101   230.7271 </r>
       <r>   -15.3515    40.1839   236.0580 </r>
       <r>   -15.2189    43.7276   241.8591 </r>
       <r>   -15.0862    36.5256   246.7046 </r>
       <r>   -14.9535    38.7100   251.8400 </r>
       <r>   -14.8209    52.8758   258.8547 </r>
       <r>   -14.6882    56.9223   266.4062 </r>
       <r>   -14.5555    44.9516   272.3696 </r>
       <r>   -14.4229    33.6626   276.8353 </r>
       <r>   -14.2902    25.8717   280.2676 </r>
       <r>   -14.1576    17.4532   282.5829 </r>
       <r>   -14.0249     9.2395   283.8087 </r>
       <r>   -13.8922    12.7097   285.4948 </r>
       <r>   -13.7596     3.7202   285.9883 </r>
       <r>   -13.6269     0.0880   286.0000 </r>
       <r>   -13.4942     0.0001   286.0000 </r>
       <r>   -13.3616     0.0000   286.0000 </r>
       <r>   -13.2289     0.0000   286.0000 </r>
       <r>   -13.0962     0.0000   286.0000 </r>
       <r>   -12.9636     0.0000   286.0000 </r>
       <r>   -12.8309     0.0029   286.0004 </r>
       <r>   -12.6983     0.5170   286.0690 </r>
       <r>   -12.5656     4.4003   286.6527 </r>
       <r>   -12.4329     2.5299   286.9884 </r>
       <r>   -12.3003     0.0876   287.0000 </r>
       <r>   -12.1676     0.0001   287.0000 </r>
       <r>   -12.0349     0.0000   287.0000 </r>
       <r>   -11.9023     0.0000   287.0000 </r>
       <r>   -11.7696     0.0000   287.0000 </r>
       <r>   -11.6370     0.0000   287.0000 </r>
       <r>   -11.5043     0.0000   287.0000 </r>
       <r>   -11.3716     0.0000   287.0000 </r>
       <r>   -11.2390     0.0000   287.0000 </r>
       <r>   -11.1063     0.0000   287.0000 </r>
       <r>   -10.9736     0.0000   287.0000 </r>
       <r>   -10.8410     0.0000   287.0000 </r>
       <r>   -10.7083     0.0000   287.0000 </r>
       <r>   -10.5757     0.0000   287.0000 </r>
       <r>   -10.4430     0.0000   287.0000 </r>
       <r>   -10.3103     0.0000   287.0000 </r>
       <r>   -10.1777     0.0000   287.0000 </r>
       <r>   -10.0450     0.0000   287.0000 </r>
       <r>    -9.9123     0.0000   287.0000 </r>
       <r>    -9.7797     0.0000   287.0000 </r>
       <r>    -9.6470     0.0000   287.0000 </r>
       <r>    -9.5144     0.0000   287.0000 </r>
       <r>    -9.3817     0.0000   287.0000 </r>
       <r>    -9.2490     0.0000   287.0000 </r>
       <r>    -9.1164     0.0000   287.0000 </r>
       <r>    -8.9837     0.0000   287.0000 </r>
       <r>    -8.8510     0.0000   287.0000 </r>
       <r>    -8.7184     0.0000   287.0000 </r>
       <r>    -8.5857     0.0000   287.0000 </r>
       <r>    -8.4530     0.0000   287.0000 </r>
       <r>    -8.3204     0.0000   287.0000 </r>
       <r>    -8.1877     0.0000   287.0000 </r>
       <r>    -8.0551     0.0000   287.0000 </r>
       <r>    -7.9224     0.0000   287.0000 </r>
       <r>    -7.7897     0.0000   287.0000 </r>
       <r>    -7.6571     0.0000   287.0000 </r>
       <r>    -7.5244     0.0000   287.0000 </r>
       <r>    -7.3917     0.0000   287.0000 </r>
       <r>    -7.2591     0.0000   287.0000 </r>
       <r>    -7.1264     0.0000   287.0000 </r>
       <r>    -6.9938     0.0000   287.0000 </r>
       <r>    -6.8611     0.0000   287.0000 </r>
       <r>    -6.7284     0.0000   287.0000 </r>
       <r>    -6.5958     0.0000   287.0000 </r>
       <r>    -6.4631     0.0000   287.0000 </r>
       <r>    -6.3304     0.0000   287.0000 </r>
       <r>    -6.1978     0.0119   287.0016 </r>
       <r>    -6.0651     1.0530   287.1413 </r>
       <r>    -5.9325     4.8794   287.7886 </r>
       <r>    -5.7998     1.5657   287.9963 </r>
       <r>    -5.6671     0.0279   288.0000 </r>
       <r>    -5.5345     0.0000   288.0000 </r>
       <r>    -5.4018     0.0000   288.0000 </r>
       <r>    -5.2691     0.0004   288.0001 </r>
       <r>    -5.1365     0.2175   288.0289 </r>
       <r>    -5.0038     6.7006   288.9178 </r>
       <r>    -4.8711    23.9120   292.0901 </r>
       <r>    -4.7385    28.4270   295.8613 </r>
       <r>    -4.6058    18.9456   298.3747 </r>
       <r>    -4.4732    13.3042   300.1396 </r>
       <r>    -4.3405    46.5317   306.3127 </r>
       <r>    -4.2078    74.6977   316.2223 </r>
       <r>    -4.0752    75.7164   326.2670 </r>
       <r>    -3.9425   104.0428   340.0697 </r>
       <r>    -3.8098    95.3357   352.7172 </r>
       <r>    -3.6772    74.8948   362.6529 </r>
       <r>    -3.5445    71.0603   372.0800 </r>
       <r>    -3.4119    82.3519   383.0050 </r>
       <r>    -3.2792    98.2370   396.0374 </r>
       <r>    -3.1465    88.9128   407.8329 </r>
       <r>    -3.0139    82.5389   418.7827 </r>
       <r>    -2.8812    70.9269   428.1921 </r>
       <r>    -2.7485    57.2552   435.7877 </r>
       <r>    -2.6159    68.2782   444.8457 </r>
       <r>    -2.4832    75.5107   454.8632 </r>
       <r>    -2.3506   111.7753   469.6916 </r>
       <r>    -2.2179   111.4719   484.4798 </r>
       <r>    -2.0852   119.0683   500.2758 </r>
       <r>    -1.9526   144.7627   519.4804 </r>
       <r>    -1.8199   155.0465   540.0493 </r>
       <r>    -1.6872   128.5520   557.1034 </r>
       <r>    -1.5546   110.7229   571.7922 </r>
       <r>    -1.4219   109.4737   586.3153 </r>
       <r>    -1.2893    59.9790   594.2723 </r>
       <r>    -1.1566    16.3362   596.4395 </r>
       <r>    -1.0239    16.7816   598.6658 </r>
       <r>    -0.8913    21.7144   601.5465 </r>
       <r>    -0.7586    23.4223   604.6538 </r>
       <r>    -0.6259    23.8521   607.8181 </r>
       <r>    -0.4933    22.8059   610.8436 </r>
       <r>    -0.3606    25.3995   614.2132 </r>
       <r>    -0.2279    19.8021   616.8402 </r>
       <r>    -0.0953    18.2327   619.2590 </r>
       <r>     0.0374    20.1073   621.9265 </r>
       <r>     0.1700    19.2968   624.4864 </r>
       <r>     0.3027    10.3385   625.8580 </r>
       <r>     0.4354     3.7464   626.3550 </r>
       <r>     0.5680     7.6324   627.3675 </r>
       <r>     0.7007    56.6330   634.8806 </r>
       <r>     0.8334   263.2940   669.8100 </r>
       <r>     0.9660   465.0400   731.5035 </r>
       <r>     1.0987   497.9753   797.5664 </r>
       <r>     1.2313   215.3068   826.1296 </r>
       <r>     1.3640    14.0342   827.9914 </r>
       <r>     1.4967     0.0646   828.0000 </r>
       <r>     1.6293     0.0000   828.0000 </r>
       <r>     1.7620     0.0000   828.0000 </r>
       <r>     1.8947     0.0000   828.0000 </r>
       <r>     2.0273     0.0000   828.0000 </r>
       <r>     2.1600     0.0000   828.0000 </r>
       <r>     2.2926     0.0000   828.0000 </r>
       <r>     2.4253     0.0000   828.0000 </r>
       <r>     2.5580     0.0000   828.0000 </r>
       <r>     2.6906     0.0000   828.0000 </r>
       <r>     2.8233     0.0000   828.0000 </r>
       <r>     2.9560     0.0000   828.0000 </r>
      </set>
     </set>
    </array>
   </total>
  </dos>
 </calculation>
 <structure name="finalpos" >
  <crystal>
   <varray name="basis" >
    <v>      15.52620029       0.00000000       0.00000000 </v>
    <v>      -7.76321928      13.44600078       0.00000000 </v>
    <v>       0.00000000       0.00000000      22.92320061 </v>
   </varray>
   <i name="volume">   4785.56888143 </i>
   <varray name="rec_basis" >
    <v>       0.06440726       0.03718635       0.00000000 </v>
    <v>       0.00000000       0.07437156       0.00000000 </v>
    <v>       0.00000000       0.00000000       0.04362393 </v>
   </varray>
  </crystal>
  <varray name="positions" >
   <v>       0.00003917       0.99405901       0.03033624 </v>
   <v>       0.33275360       0.15837075       0.17008906 </v>
   <v>       0.15721200       0.32180035       0.31089711 </v>
   <v>       0.99940599       0.24336840       0.03090695 </v>
   <v>       0.33112050       0.40956871       0.16736282 </v>
   <v>       0.16489353       0.07057290       0.31598743 </v>
   <v>       0.24944105       0.24294864       0.03007226 </v>
   <v>       0.08325102       0.41124385       0.17040873 </v>
   <v>       0.40989880       0.06072202       0.31032090 </v>
   <v>       0.25007399       0.99406317       0.02938641 </v>
   <v>       0.08356700       0.15929873       0.17109050 </v>
   <v>       0.40986351       0.32711024       0.30354974 </v>
   <v>       0.50116035       0.99429240       0.03002322 </v>
   <v>       0.83340378       0.16050958       0.17064895 </v>
   <v>       0.67860277       0.33119657       0.31047157 </v>
   <v>       0.50015182       0.24298369       0.02992081 </v>
   <v>       0.83441401       0.41199105       0.16916542 </v>
   <v>       0.66772150       0.07660911       0.31043988 </v>
   <v>       0.74972291       0.24325398       0.03048782 </v>
   <v>       0.58379476       0.40948908       0.16782093 </v>
   <v>       0.91509782       0.07454016       0.31045788 </v>
   <v>       0.75033990       0.99380801       0.03064963 </v>
   <v>       0.58279714       0.16052626       0.17149054 </v>
   <v>       0.91731287       0.32689769       0.31125979 </v>
   <v>       0.99974462       0.49285546       0.02920928 </v>
   <v>       0.33198047       0.66077687       0.16777516 </v>
   <v>       0.16772281       0.82605775       0.31154614 </v>
   <v>       0.00109100       0.74435055       0.02810917 </v>
   <v>       0.33349196       0.90933701       0.16783895 </v>
   <v>       0.16601270       0.58039554       0.31598990 </v>
   <v>       0.25007116       0.74357714       0.02818636 </v>
   <v>       0.08459922       0.91048042       0.16978392 </v>
   <v>       0.41018729       0.57913969       0.30328025 </v>
   <v>       0.24904571       0.49282572       0.02896259 </v>
   <v>       0.08460138       0.66070276       0.16886640 </v>
   <v>       0.41557993       0.82853812       0.31073815 </v>
   <v>       0.50032839       0.49326695       0.02887153 </v>
   <v>       0.83726968       0.66168843       0.16664619 </v>
   <v>       0.66878473       0.82978071       0.31161650 </v>
   <v>       0.50014280       0.74398794       0.02888695 </v>
   <v>       0.83320552       0.90850033       0.17027481 </v>
   <v>       0.67621344       0.58178159       0.30191321 </v>
   <v>       0.75095159       0.74448588       0.02872753 </v>
   <v>       0.58268294       0.90897436       0.17004683 </v>
   <v>       0.92637337       0.58216178       0.31140669 </v>
   <v>       0.75060234       0.49312157       0.02850067 </v>
   <v>       0.58364255       0.66025237       0.16718476 </v>
   <v>       0.92279632       0.83023274       0.31101212 </v>
   <v>       0.16651264       0.32704763       0.99466351 </v>
   <v>       0.00123828       0.99403848       0.13455324 </v>
   <v>       0.34215050       0.16553146       0.28183998 </v>
   <v>       0.41716817       0.32683296       0.99446977 </v>
   <v>       0.24961448       0.99292203       0.13242391 </v>
   <v>       0.08418224       0.16218421       0.27706969 </v>
   <v>       0.41723015       0.07783138       0.99464225 </v>
   <v>       0.24826612       0.24283336       0.13379058 </v>
   <v>       0.08561679       0.40888626       0.27756176 </v>
   <v>       0.16708635       0.07819813       0.99457951 </v>
   <v>       0.99798110       0.24217736       0.13543751 </v>
   <v>       0.32661379       0.40786155       0.27433620 </v>
   <v>       0.08276733       0.16041503       0.06609738 </v>
   <v>       0.41599200       0.32715141       0.20085588 </v>
   <v>       0.24137842       0.97514261       0.35073818 </v>
   <v>       0.33334377       0.16054846       0.06607804 </v>
   <v>       0.16444740       0.32595509       0.20532979 </v>
   <v>       0.98965489       0.98436904       0.34938274 </v>
   <v>       0.33334884       0.40968382       0.06514741 </v>
   <v>       0.17081398       0.07753043       0.20614371 </v>
   <v>       0.99873958       0.24259695       0.34764052 </v>
   <v>       0.08177379       0.40885313       0.06583659 </v>
   <v>       0.41517561       0.07488961       0.20345560 </v>
   <v>       0.24506759       0.25029560       0.36507113 </v>
   <v>       0.66670199       0.32670069       0.99404112 </v>
   <v>       0.50149761       0.99409516       0.13348709 </v>
   <v>       0.83650436       0.16153591       0.27232866 </v>
   <v>       0.91635954       0.32605511       0.99436692 </v>
   <v>       0.74995085       0.99429150       0.13502226 </v>
   <v>       0.58135078       0.16360022       0.28054393 </v>
   <v>       0.91619963       0.07681615       0.99517895 </v>
   <v>       0.74999977       0.24393293       0.13492412 </v>
   <v>       0.58096942       0.41542338       0.27958793 </v>
   <v>       0.66681299       0.07763530       0.99474386 </v>
   <v>       0.50067479       0.24296540       0.13397281 </v>
   <v>       0.83636353       0.41920348       0.27545264 </v>
   <v>       0.58381220       0.16066648       0.06616649 </v>
   <v>       0.91720486       0.33043288       0.20712444 </v>
   <v>       0.75561626       0.00284656       0.34604377 </v>
   <v>       0.83300855       0.16033780       0.06608422 </v>
   <v>       0.66739444       0.32933664       0.20481471 </v>
   <v>       0.50412373       0.98502373       0.34849265 </v>
   <v>       0.83345507       0.40968284       0.06502547 </v>
   <v>       0.66506417       0.07824451       0.20786206 </v>
   <v>       0.58378578       0.40928348       0.06544464 </v>
   <v>       0.91674283       0.07368604       0.20685392 </v>
   <v>       0.76057072       0.24307010       0.34705790 </v>
   <v>       0.16682248       0.82776197       0.99271050 </v>
   <v>       0.99954063       0.49396789       0.13299346 </v>
   <v>       0.33469443       0.66328489       0.27390386 </v>
   <v>       0.41717477       0.82724773       0.99336795 </v>
   <v>       0.24817916       0.49236483       0.13243946 </v>
   <v>       0.08290373       0.66180795       0.27491729 </v>
   <v>       0.41625428       0.57580884       0.99394514 </v>
   <v>       0.24941781       0.74310807       0.13170413 </v>
   <v>       0.07914211       0.90535974       0.27400646 </v>
   <v>       0.16607332       0.57479754       0.99364238 </v>
   <v>       0.00166427       0.74443608       0.13162300 </v>
   <v>       0.33270013       0.90442671       0.27116802 </v>
   <v>       0.08369646       0.66068245       0.06353557 </v>
   <v>       0.41682710       0.82597622       0.20293100 </v>
   <v>       0.25111365       0.48554899       0.36686599 </v>
   <v>       0.33306491       0.66062142       0.06382777 </v>
   <v>       0.16673065       0.82679494       0.20398039 </v>
   <v>       0.99263606       0.49349631       0.34946836 </v>
   <v>       0.33366496       0.90983965       0.06435428 </v>
   <v>       0.16606138       0.57667560       0.20367998 </v>
   <v>       0.99917102       0.74084468       0.34812852 </v>
   <v>       0.08335298       0.91092543       0.06407164 </v>
   <v>       0.41607955       0.57715974       0.19951935 </v>
   <v>       0.25741742       0.75380984       0.34985529 </v>
   <v>       0.66852012       0.82803256       0.99401443 </v>
   <v>       0.50198378       0.49426959       0.13247432 </v>
   <v>       0.83427469       0.65940807       0.27530734 </v>
   <v>       0.91659864       0.82784691       0.99327286 </v>
   <v>       0.75205098       0.49393158       0.13210654 </v>
   <v>       0.58185453       0.64760300       0.27625138 </v>
   <v>       0.91633882       0.57600065       0.99319251 </v>
   <v>       0.75082191       0.74274341       0.13216234 </v>
   <v>       0.58081163       0.90727994       0.27325765 </v>
   <v>       0.66643472       0.57551915       0.99392202 </v>
   <v>       0.50043662       0.74401633       0.13187077 </v>
   <v>       0.83503348       0.90492683       0.27494913 </v>
   <v>       0.58377723       0.66067263       0.06386003 </v>
   <v>       0.91675553       0.82455901       0.20449195 </v>
   <v>       0.73888067       0.49807766       0.36526569 </v>
   <v>       0.83459299       0.66107051       0.06363974 </v>
   <v>       0.66577860       0.82258946       0.20375821 </v>
   <v>       0.83391025       0.91060363       0.06614008 </v>
   <v>       0.67098290       0.57663725       0.20182286 </v>
   <v>       0.91915937       0.58009783       0.20463623 </v>
   <v>       0.58392481       0.91051142       0.06465662 </v>
   <v>       0.74866184       0.73321338       0.36146159 </v>
   <v>       0.49823777       0.74489751       0.36021779 </v>
   <v>       0.51718030       0.67500145       0.41732954 </v>
   <v>       0.66028896       0.65992304       0.42057491 </v>
   <v>       0.45667723       0.59394761       0.50240607 </v>
   <v>       0.48964642       0.50891892       0.41720109 </v>
   <v>       0.64615739       0.49104281       0.41849734 </v>
   <v>       0.48943311       0.37161887       0.45754268 </v>
   <v>       0.58123071       0.54206266       0.50011980 </v>
   <v>       0.32607032       0.48641831       0.42907564 </v>
   <v>       0.39085905       0.42338132       0.50809132 </v>
   <v>       0.32647563       0.33195155       0.42187776 </v>
   <v>       0.51710675       0.88695964       0.50192597 </v>
   <v>       0.43775904       0.83387976       0.49825384 </v>
   <v>       0.55626112       0.84864010       0.51612479 </v>
   <v>       0.52889073       0.94385410       0.53385810 </v>
   <v>       0.54544007       0.92140786       0.45958687 </v>
  </varray>
 </structure>
</modeling>
