CeO2                                    
           1
    15.526200    0.000000    0.000000
    -7.763219   13.446001    0.000000
     0.000000    0.000000   22.923201
   Ce   O    Ni   C    H 
  48  94  10   1   4
Direct configuration=     1
   0.00003917  0.99405901  0.03033624
   0.33275360  0.15837075  0.17008906
   0.15721200  0.32180035  0.31089711
   0.99940599  0.24336840  0.03090695
   0.33112050  0.40956871  0.16736282
   0.16489353  0.07057290  0.31598743
   0.24944105  0.24294864  0.03007226
   0.08325102  0.41124385  0.17040873
   0.40989880  0.06072202  0.31032090
   0.25007399  0.99406317  0.02938641
   0.08356700  0.15929873  0.17109050
   0.40986351  0.32711024  0.30354974
   0.50116035  0.99429240  0.03002322
   0.83340378  0.16050958  0.17064895
   0.67860277  0.33119657  0.31047157
   0.50015182  0.24298369  0.02992081
   0.83441401  0.41199105  0.16916542
   0.66772150  0.07660911  0.31043988
   0.74972291  0.24325398  0.03048782
   0.58379476  0.40948908  0.16782093
   0.91509782  0.07454016  0.31045788
   0.75033990  0.99380801  0.03064963
   0.58279714  0.16052626  0.17149054
   0.91731287  0.32689769  0.31125979
   0.99974462  0.49285546  0.02920928
   0.33198047  0.66077687  0.16777516
   0.16772281  0.82605775  0.31154614
   0.00109100  0.74435055  0.02810917
   0.33349196  0.90933701  0.16783895
   0.16601270  0.58039554  0.31598990
   0.25007116  0.74357714  0.02818636
   0.08459922  0.91048042  0.16978392
   0.41018729  0.57913969  0.30328025
   0.24904571  0.49282572  0.02896259
   0.08460138  0.66070276  0.16886640
   0.41557993  0.82853812  0.31073815
   0.50032839  0.49326695  0.02887153
   0.83726968  0.66168843  0.16664619
   0.66878473  0.82978071  0.31161650
   0.50014280  0.74398794  0.02888695
   0.83320552  0.90850033  0.17027481
   0.67621344  0.58178159  0.30191321
   0.75095159  0.74448588  0.02872753
   0.58268294  0.90897436  0.17004683
   0.92637337  0.58216178  0.31140669
   0.75060234  0.49312157  0.02850067
   0.58364255  0.66025237  0.16718476
   0.92279632  0.83023274  0.31101212
   0.16651264  0.32704763  0.99466351
   0.00123828  0.99403848  0.13455324
   0.34215050  0.16553146  0.28183998
   0.41716817  0.32683296  0.99446977
   0.24961448  0.99292203  0.13242391
   0.08418224  0.16218421  0.27706969
   0.41723015  0.07783138  0.99464225
   0.24826612  0.24283336  0.13379058
   0.08561679  0.40888626  0.27756176
   0.16708635  0.07819813  0.99457951
   0.99798110  0.24217736  0.13543751
   0.32661379  0.40786155  0.27433620
   0.08276733  0.16041503  0.06609738
   0.41599200  0.32715141  0.20085588
   0.24137842  0.97514261  0.35073818
   0.33334377  0.16054846  0.06607804
   0.16444740  0.32595509  0.20532979
   0.98965489  0.98436904  0.34938274
   0.33334884  0.40968382  0.06514741
   0.17081398  0.07753043  0.20614371
   0.99873958  0.24259695  0.34764052
   0.08177379  0.40885313  0.06583659
   0.41517561  0.07488961  0.20345560
   0.24506759  0.25029560  0.36507113
   0.66670199  0.32670069  0.99404112
   0.50149761  0.99409516  0.13348709
   0.83650436  0.16153591  0.27232866
   0.91635954  0.32605511  0.99436692
   0.74995085  0.99429150  0.13502226
   0.58135078  0.16360022  0.28054393
   0.91619963  0.07681615  0.99517895
   0.74999977  0.24393293  0.13492412
   0.58096942  0.41542338  0.27958793
   0.66681299  0.07763530  0.99474386
   0.50067479  0.24296540  0.13397281
   0.83636353  0.41920348  0.27545264
   0.58381220  0.16066648  0.06616649
   0.91720486  0.33043288  0.20712444
   0.75561626  0.00284656  0.34604377
   0.83300855  0.16033780  0.06608422
   0.66739444  0.32933664  0.20481471
   0.50412373  0.98502373  0.34849265
   0.83345507  0.40968284  0.06502547
   0.66506417  0.07824451  0.20786206
   0.58378578  0.40928348  0.06544464
   0.91674283  0.07368604  0.20685392
   0.76057072  0.24307010  0.34705790
   0.16682248  0.82776197  0.99271050
   0.99954063  0.49396789  0.13299346
   0.33469443  0.66328489  0.27390386
   0.41717477  0.82724773  0.99336795
   0.24817916  0.49236483  0.13243946
   0.08290373  0.66180795  0.27491729
   0.41625428  0.57580884  0.99394514
   0.24941781  0.74310807  0.13170413
   0.07914211  0.90535974  0.27400646
   0.16607332  0.57479754  0.99364238
   0.00166427  0.74443608  0.13162300
   0.33270013  0.90442671  0.27116802
   0.08369646  0.66068245  0.06353557
   0.41682710  0.82597622  0.20293100
   0.25111365  0.48554899  0.36686599
   0.33306491  0.66062142  0.06382777
   0.16673065  0.82679494  0.20398039
   0.99263606  0.49349631  0.34946836
   0.33366496  0.90983965  0.06435428
   0.16606138  0.57667560  0.20367998
   0.99917102  0.74084468  0.34812852
   0.08335298  0.91092543  0.06407164
   0.41607955  0.57715974  0.19951935
   0.25741742  0.75380984  0.34985529
   0.66852012  0.82803256  0.99401443
   0.50198378  0.49426959  0.13247432
   0.83427469  0.65940807  0.27530734
   0.91659864  0.82784691  0.99327286
   0.75205098  0.49393158  0.13210654
   0.58185453  0.64760300  0.27625138
   0.91633882  0.57600065  0.99319251
   0.75082191  0.74274341  0.13216234
   0.58081163  0.90727994  0.27325765
   0.66643472  0.57551915  0.99392202
   0.50043662  0.74401633  0.13187077
   0.83503348  0.90492683  0.27494913
   0.58377723  0.66067263  0.06386003
   0.91675553  0.82455901  0.20449195
   0.73888067  0.49807766  0.36526569
   0.83459299  0.66107051  0.06363974
   0.66577860  0.82258946  0.20375821
   0.83391025  0.91060363  0.06614008
   0.67098290  0.57663725  0.20182286
   0.91915937  0.58009783  0.20463623
   0.58392481  0.91051142  0.06465662
   0.74866184  0.73321338  0.36146159
   0.49823777  0.74489751  0.36021779
   0.51718030  0.67500145  0.41732954
   0.66028896  0.65992304  0.42057491
   0.45667723  0.59394761  0.50240607
   0.48964642  0.50891892  0.41720109
   0.64615739  0.49104281  0.41849734
   0.48943311  0.37161887  0.45754268
   0.58123071  0.54206266  0.50011980
   0.32607032  0.48641831  0.42907564
   0.39085905  0.42338132  0.50809132
   0.32647563  0.33195155  0.42187776
   0.51717116  0.88695964  0.50192597
   0.43772186  0.83380539  0.49825384
   0.55626112  0.84864010  0.51612479
   0.52889073  0.94385410  0.53385810
   0.54544007  0.92140786  0.45958687
Direct configuration=     2
   0.00003917  0.99405901  0.03033624
   0.33275360  0.15837075  0.17008906
   0.15721200  0.32180035  0.31089711
   0.99940599  0.24336840  0.03090695
   0.33112050  0.40956871  0.16736282
   0.16489353  0.07057290  0.31598743
   0.24944105  0.24294864  0.03007226
   0.08325102  0.41124385  0.17040873
   0.40989880  0.06072202  0.31032090
   0.25007399  0.99406317  0.02938641
   0.08356700  0.15929873  0.17109050
   0.40986351  0.32711024  0.30354974
   0.50116035  0.99429240  0.03002322
   0.83340378  0.16050958  0.17064895
   0.67860277  0.33119657  0.31047157
   0.50015182  0.24298369  0.02992081
   0.83441401  0.41199105  0.16916542
   0.66772150  0.07660911  0.31043988
   0.74972291  0.24325398  0.03048782
   0.58379476  0.40948908  0.16782093
   0.91509782  0.07454016  0.31045788
   0.75033990  0.99380801  0.03064963
   0.58279714  0.16052626  0.17149054
   0.91731287  0.32689769  0.31125979
   0.99974462  0.49285546  0.02920928
   0.33198047  0.66077687  0.16777516
   0.16772281  0.82605775  0.31154614
   0.00109100  0.74435055  0.02810917
   0.33349196  0.90933701  0.16783895
   0.16601270  0.58039554  0.31598990
   0.25007116  0.74357714  0.02818636
   0.08459922  0.91048042  0.16978392
   0.41018729  0.57913969  0.30328025
   0.24904571  0.49282572  0.02896259
   0.08460138  0.66070276  0.16886640
   0.41557993  0.82853812  0.31073815
   0.50032839  0.49326695  0.02887153
   0.83726968  0.66168843  0.16664619
   0.66878473  0.82978071  0.31161650
   0.50014280  0.74398794  0.02888695
   0.83320552  0.90850033  0.17027481
   0.67621344  0.58178159  0.30191321
   0.75095159  0.74448588  0.02872753
   0.58268294  0.90897436  0.17004683
   0.92637337  0.58216178  0.31140669
   0.75060234  0.49312157  0.02850067
   0.58364255  0.66025237  0.16718476
   0.92279632  0.83023274  0.31101212
   0.16651264  0.32704763  0.99466351
   0.00123828  0.99403848  0.13455324
   0.34215050  0.16553146  0.28183998
   0.41716817  0.32683296  0.99446977
   0.24961448  0.99292203  0.13242391
   0.08418224  0.16218421  0.27706969
   0.41723015  0.07783138  0.99464225
   0.24826612  0.24283336  0.13379058
   0.08561679  0.40888626  0.27756176
   0.16708635  0.07819813  0.99457951
   0.99798110  0.24217736  0.13543751
   0.32661379  0.40786155  0.27433620
   0.08276733  0.16041503  0.06609738
   0.41599200  0.32715141  0.20085588
   0.24137842  0.97514261  0.35073818
   0.33334377  0.16054846  0.06607804
   0.16444740  0.32595509  0.20532979
   0.98965489  0.98436904  0.34938274
   0.33334884  0.40968382  0.06514741
   0.17081398  0.07753043  0.20614371
   0.99873958  0.24259695  0.34764052
   0.08177379  0.40885313  0.06583659
   0.41517561  0.07488961  0.20345560
   0.24506759  0.25029560  0.36507113
   0.66670199  0.32670069  0.99404112
   0.50149761  0.99409516  0.13348709
   0.83650436  0.16153591  0.27232866
   0.91635954  0.32605511  0.99436692
   0.74995085  0.99429150  0.13502226
   0.58135078  0.16360022  0.28054393
   0.91619963  0.07681615  0.99517895
   0.74999977  0.24393293  0.13492412
   0.58096942  0.41542338  0.27958793
   0.66681299  0.07763530  0.99474386
   0.50067479  0.24296540  0.13397281
   0.83636353  0.41920348  0.27545264
   0.58381220  0.16066648  0.06616649
   0.91720486  0.33043288  0.20712444
   0.75561626  0.00284656  0.34604377
   0.83300855  0.16033780  0.06608422
   0.66739444  0.32933664  0.20481471
   0.50412373  0.98502373  0.34849265
   0.83345507  0.40968284  0.06502547
   0.66506417  0.07824451  0.20786206
   0.58378578  0.40928348  0.06544464
   0.91674283  0.07368604  0.20685392
   0.76057072  0.24307010  0.34705790
   0.16682248  0.82776197  0.99271050
   0.99954063  0.49396789  0.13299346
   0.33469443  0.66328489  0.27390386
   0.41717477  0.82724773  0.99336795
   0.24817916  0.49236483  0.13243946
   0.08290373  0.66180795  0.27491729
   0.41625428  0.57580884  0.99394514
   0.24941781  0.74310807  0.13170413
   0.07914211  0.90535974  0.27400646
   0.16607332  0.57479754  0.99364238
   0.00166427  0.74443608  0.13162300
   0.33270013  0.90442671  0.27116802
   0.08369646  0.66068245  0.06353557
   0.41682710  0.82597622  0.20293100
   0.25111365  0.48554899  0.36686599
   0.33306491  0.66062142  0.06382777
   0.16673065  0.82679494  0.20398039
   0.99263606  0.49349631  0.34946836
   0.33366496  0.90983965  0.06435428
   0.16606138  0.57667560  0.20367998
   0.99917102  0.74084468  0.34812852
   0.08335298  0.91092543  0.06407164
   0.41607955  0.57715974  0.19951935
   0.25741742  0.75380984  0.34985529
   0.66852012  0.82803256  0.99401443
   0.50198378  0.49426959  0.13247432
   0.83427469  0.65940807  0.27530734
   0.91659864  0.82784691  0.99327286
   0.75205098  0.49393158  0.13210654
   0.58185453  0.64760300  0.27625138
   0.91633882  0.57600065  0.99319251
   0.75082191  0.74274341  0.13216234
   0.58081163  0.90727994  0.27325765
   0.66643472  0.57551915  0.99392202
   0.50043662  0.74401633  0.13187077
   0.83503348  0.90492683  0.27494913
   0.58377723  0.66067263  0.06386003
   0.91675553  0.82455901  0.20449195
   0.73888067  0.49807766  0.36526569
   0.83459299  0.66107051  0.06363974
   0.66577860  0.82258946  0.20375821
   0.83391025  0.91060363  0.06614008
   0.67098290  0.57663725  0.20182286
   0.91915937  0.58009783  0.20463623
   0.58392481  0.91051142  0.06465662
   0.74866184  0.73321338  0.36146159
   0.49823777  0.74489751  0.36021779
   0.51718030  0.67500145  0.41732954
   0.66028896  0.65992304  0.42057491
   0.45667723  0.59394761  0.50240607
   0.48964642  0.50891892  0.41720109
   0.64615739  0.49104281  0.41849734
   0.48943311  0.37161887  0.45754268
   0.58123071  0.54206266  0.50011980
   0.32607032  0.48641831  0.42907564
   0.39085905  0.42338132  0.50809132
   0.32647563  0.33195155  0.42187776
   0.51714394  0.88703402  0.50192597
   0.43772186  0.83380539  0.49825384
   0.55626112  0.84864010  0.51612479
   0.52889073  0.94385410  0.53385810
   0.54544007  0.92140786  0.45958687
Direct configuration=     3
   0.00003917  0.99405901  0.03033624
   0.33275360  0.15837075  0.17008906
   0.15721200  0.32180035  0.31089711
   0.99940599  0.24336840  0.03090695
   0.33112050  0.40956871  0.16736282
   0.16489353  0.07057290  0.31598743
   0.24944105  0.24294864  0.03007226
   0.08325102  0.41124385  0.17040873
   0.40989880  0.06072202  0.31032090
   0.25007399  0.99406317  0.02938641
   0.08356700  0.15929873  0.17109050
   0.40986351  0.32711024  0.30354974
   0.50116035  0.99429240  0.03002322
   0.83340378  0.16050958  0.17064895
   0.67860277  0.33119657  0.31047157
   0.50015182  0.24298369  0.02992081
   0.83441401  0.41199105  0.16916542
   0.66772150  0.07660911  0.31043988
   0.74972291  0.24325398  0.03048782
   0.58379476  0.40948908  0.16782093
   0.91509782  0.07454016  0.31045788
   0.75033990  0.99380801  0.03064963
   0.58279714  0.16052626  0.17149054
   0.91731287  0.32689769  0.31125979
   0.99974462  0.49285546  0.02920928
   0.33198047  0.66077687  0.16777516
   0.16772281  0.82605775  0.31154614
   0.00109100  0.74435055  0.02810917
   0.33349196  0.90933701  0.16783895
   0.16601270  0.58039554  0.31598990
   0.25007116  0.74357714  0.02818636
   0.08459922  0.91048042  0.16978392
   0.41018729  0.57913969  0.30328025
   0.24904571  0.49282572  0.02896259
   0.08460138  0.66070276  0.16886640
   0.41557993  0.82853812  0.31073815
   0.50032839  0.49326695  0.02887153
   0.83726968  0.66168843  0.16664619
   0.66878473  0.82978071  0.31161650
   0.50014280  0.74398794  0.02888695
   0.83320552  0.90850033  0.17027481
   0.67621344  0.58178159  0.30191321
   0.75095159  0.74448588  0.02872753
   0.58268294  0.90897436  0.17004683
   0.92637337  0.58216178  0.31140669
   0.75060234  0.49312157  0.02850067
   0.58364255  0.66025237  0.16718476
   0.92279632  0.83023274  0.31101212
   0.16651264  0.32704763  0.99466351
   0.00123828  0.99403848  0.13455324
   0.34215050  0.16553146  0.28183998
   0.41716817  0.32683296  0.99446977
   0.24961448  0.99292203  0.13242391
   0.08418224  0.16218421  0.27706969
   0.41723015  0.07783138  0.99464225
   0.24826612  0.24283336  0.13379058
   0.08561679  0.40888626  0.27756176
   0.16708635  0.07819813  0.99457951
   0.99798110  0.24217736  0.13543751
   0.32661379  0.40786155  0.27433620
   0.08276733  0.16041503  0.06609738
   0.41599200  0.32715141  0.20085588
   0.24137842  0.97514261  0.35073818
   0.33334377  0.16054846  0.06607804
   0.16444740  0.32595509  0.20532979
   0.98965489  0.98436904  0.34938274
   0.33334884  0.40968382  0.06514741
   0.17081398  0.07753043  0.20614371
   0.99873958  0.24259695  0.34764052
   0.08177379  0.40885313  0.06583659
   0.41517561  0.07488961  0.20345560
   0.24506759  0.25029560  0.36507113
   0.66670199  0.32670069  0.99404112
   0.50149761  0.99409516  0.13348709
   0.83650436  0.16153591  0.27232866
   0.91635954  0.32605511  0.99436692
   0.74995085  0.99429150  0.13502226
   0.58135078  0.16360022  0.28054393
   0.91619963  0.07681615  0.99517895
   0.74999977  0.24393293  0.13492412
   0.58096942  0.41542338  0.27958793
   0.66681299  0.07763530  0.99474386
   0.50067479  0.24296540  0.13397281
   0.83636353  0.41920348  0.27545264
   0.58381220  0.16066648  0.06616649
   0.91720486  0.33043288  0.20712444
   0.75561626  0.00284656  0.34604377
   0.83300855  0.16033780  0.06608422
   0.66739444  0.32933664  0.20481471
   0.50412373  0.98502373  0.34849265
   0.83345507  0.40968284  0.06502547
   0.66506417  0.07824451  0.20786206
   0.58378578  0.40928348  0.06544464
   0.91674283  0.07368604  0.20685392
   0.76057072  0.24307010  0.34705790
   0.16682248  0.82776197  0.99271050
   0.99954063  0.49396789  0.13299346
   0.33469443  0.66328489  0.27390386
   0.41717477  0.82724773  0.99336795
   0.24817916  0.49236483  0.13243946
   0.08290373  0.66180795  0.27491729
   0.41625428  0.57580884  0.99394514
   0.24941781  0.74310807  0.13170413
   0.07914211  0.90535974  0.27400646
   0.16607332  0.57479754  0.99364238
   0.00166427  0.74443608  0.13162300
   0.33270013  0.90442671  0.27116802
   0.08369646  0.66068245  0.06353557
   0.41682710  0.82597622  0.20293100
   0.25111365  0.48554899  0.36686599
   0.33306491  0.66062142  0.06382777
   0.16673065  0.82679494  0.20398039
   0.99263606  0.49349631  0.34946836
   0.33366496  0.90983965  0.06435428
   0.16606138  0.57667560  0.20367998
   0.99917102  0.74084468  0.34812852
   0.08335298  0.91092543  0.06407164
   0.41607955  0.57715974  0.19951935
   0.25741742  0.75380984  0.34985529
   0.66852012  0.82803256  0.99401443
   0.50198378  0.49426959  0.13247432
   0.83427469  0.65940807  0.27530734
   0.91659864  0.82784691  0.99327286
   0.75205098  0.49393158  0.13210654
   0.58185453  0.64760300  0.27625138
   0.91633882  0.57600065  0.99319251
   0.75082191  0.74274341  0.13216234
   0.58081163  0.90727994  0.27325765
   0.66643472  0.57551915  0.99392202
   0.50043662  0.74401633  0.13187077
   0.83503348  0.90492683  0.27494913
   0.58377723  0.66067263  0.06386003
   0.91675553  0.82455901  0.20449195
   0.73888067  0.49807766  0.36526569
   0.83459299  0.66107051  0.06363974
   0.66577860  0.82258946  0.20375821
   0.83391025  0.91060363  0.06614008
   0.67098290  0.57663725  0.20182286
   0.91915937  0.58009783  0.20463623
   0.58392481  0.91051142  0.06465662
   0.74866184  0.73321338  0.36146159
   0.49823777  0.74489751  0.36021779
   0.51718030  0.67500145  0.41732954
   0.66028896  0.65992304  0.42057491
   0.45667723  0.59394761  0.50240607
   0.48964642  0.50891892  0.41720109
   0.64615739  0.49104281  0.41849734
   0.48943311  0.37161887  0.45754268
   0.58123071  0.54206266  0.50011980
   0.32607032  0.48641831  0.42907564
   0.39085905  0.42338132  0.50809132
   0.32647563  0.33195155  0.42187776
   0.51710675  0.88695964  0.50196960
   0.43772186  0.83380539  0.49825384
   0.55626112  0.84864010  0.51612479
   0.52889073  0.94385410  0.53385810
   0.54544007  0.92140786  0.45958687
Direct configuration=     4
   0.00003917  0.99405901  0.03033624
   0.33275360  0.15837075  0.17008906
   0.15721200  0.32180035  0.31089711
   0.99940599  0.24336840  0.03090695
   0.33112050  0.40956871  0.16736282
   0.16489353  0.07057290  0.31598743
   0.24944105  0.24294864  0.03007226
   0.08325102  0.41124385  0.17040873
   0.40989880  0.06072202  0.31032090
   0.25007399  0.99406317  0.02938641
   0.08356700  0.15929873  0.17109050
   0.40986351  0.32711024  0.30354974
   0.50116035  0.99429240  0.03002322
   0.83340378  0.16050958  0.17064895
   0.67860277  0.33119657  0.31047157
   0.50015182  0.24298369  0.02992081
   0.83441401  0.41199105  0.16916542
   0.66772150  0.07660911  0.31043988
   0.74972291  0.24325398  0.03048782
   0.58379476  0.40948908  0.16782093
   0.91509782  0.07454016  0.31045788
   0.75033990  0.99380801  0.03064963
   0.58279714  0.16052626  0.17149054
   0.91731287  0.32689769  0.31125979
   0.99974462  0.49285546  0.02920928
   0.33198047  0.66077687  0.16777516
   0.16772281  0.82605775  0.31154614
   0.00109100  0.74435055  0.02810917
   0.33349196  0.90933701  0.16783895
   0.16601270  0.58039554  0.31598990
   0.25007116  0.74357714  0.02818636
   0.08459922  0.91048042  0.16978392
   0.41018729  0.57913969  0.30328025
   0.24904571  0.49282572  0.02896259
   0.08460138  0.66070276  0.16886640
   0.41557993  0.82853812  0.31073815
   0.50032839  0.49326695  0.02887153
   0.83726968  0.66168843  0.16664619
   0.66878473  0.82978071  0.31161650
   0.50014280  0.74398794  0.02888695
   0.83320552  0.90850033  0.17027481
   0.67621344  0.58178159  0.30191321
   0.75095159  0.74448588  0.02872753
   0.58268294  0.90897436  0.17004683
   0.92637337  0.58216178  0.31140669
   0.75060234  0.49312157  0.02850067
   0.58364255  0.66025237  0.16718476
   0.92279632  0.83023274  0.31101212
   0.16651264  0.32704763  0.99466351
   0.00123828  0.99403848  0.13455324
   0.34215050  0.16553146  0.28183998
   0.41716817  0.32683296  0.99446977
   0.24961448  0.99292203  0.13242391
   0.08418224  0.16218421  0.27706969
   0.41723015  0.07783138  0.99464225
   0.24826612  0.24283336  0.13379058
   0.08561679  0.40888626  0.27756176
   0.16708635  0.07819813  0.99457951
   0.99798110  0.24217736  0.13543751
   0.32661379  0.40786155  0.27433620
   0.08276733  0.16041503  0.06609738
   0.41599200  0.32715141  0.20085588
   0.24137842  0.97514261  0.35073818
   0.33334377  0.16054846  0.06607804
   0.16444740  0.32595509  0.20532979
   0.98965489  0.98436904  0.34938274
   0.33334884  0.40968382  0.06514741
   0.17081398  0.07753043  0.20614371
   0.99873958  0.24259695  0.34764052
   0.08177379  0.40885313  0.06583659
   0.41517561  0.07488961  0.20345560
   0.24506759  0.25029560  0.36507113
   0.66670199  0.32670069  0.99404112
   0.50149761  0.99409516  0.13348709
   0.83650436  0.16153591  0.27232866
   0.91635954  0.32605511  0.99436692
   0.74995085  0.99429150  0.13502226
   0.58135078  0.16360022  0.28054393
   0.91619963  0.07681615  0.99517895
   0.74999977  0.24393293  0.13492412
   0.58096942  0.41542338  0.27958793
   0.66681299  0.07763530  0.99474386
   0.50067479  0.24296540  0.13397281
   0.83636353  0.41920348  0.27545264
   0.58381220  0.16066648  0.06616649
   0.91720486  0.33043288  0.20712444
   0.75561626  0.00284656  0.34604377
   0.83300855  0.16033780  0.06608422
   0.66739444  0.32933664  0.20481471
   0.50412373  0.98502373  0.34849265
   0.83345507  0.40968284  0.06502547
   0.66506417  0.07824451  0.20786206
   0.58378578  0.40928348  0.06544464
   0.91674283  0.07368604  0.20685392
   0.76057072  0.24307010  0.34705790
   0.16682248  0.82776197  0.99271050
   0.99954063  0.49396789  0.13299346
   0.33469443  0.66328489  0.27390386
   0.41717477  0.82724773  0.99336795
   0.24817916  0.49236483  0.13243946
   0.08290373  0.66180795  0.27491729
   0.41625428  0.57580884  0.99394514
   0.24941781  0.74310807  0.13170413
   0.07914211  0.90535974  0.27400646
   0.16607332  0.57479754  0.99364238
   0.00166427  0.74443608  0.13162300
   0.33270013  0.90442671  0.27116802
   0.08369646  0.66068245  0.06353557
   0.41682710  0.82597622  0.20293100
   0.25111365  0.48554899  0.36686599
   0.33306491  0.66062142  0.06382777
   0.16673065  0.82679494  0.20398039
   0.99263606  0.49349631  0.34946836
   0.33366496  0.90983965  0.06435428
   0.16606138  0.57667560  0.20367998
   0.99917102  0.74084468  0.34812852
   0.08335298  0.91092543  0.06407164
   0.41607955  0.57715974  0.19951935
   0.25741742  0.75380984  0.34985529
   0.66852012  0.82803256  0.99401443
   0.50198378  0.49426959  0.13247432
   0.83427469  0.65940807  0.27530734
   0.91659864  0.82784691  0.99327286
   0.75205098  0.49393158  0.13210654
   0.58185453  0.64760300  0.27625138
   0.91633882  0.57600065  0.99319251
   0.75082191  0.74274341  0.13216234
   0.58081163  0.90727994  0.27325765
   0.66643472  0.57551915  0.99392202
   0.50043662  0.74401633  0.13187077
   0.83503348  0.90492683  0.27494913
   0.58377723  0.66067263  0.06386003
   0.91675553  0.82455901  0.20449195
   0.73888067  0.49807766  0.36526569
   0.83459299  0.66107051  0.06363974
   0.66577860  0.82258946  0.20375821
   0.83391025  0.91060363  0.06614008
   0.67098290  0.57663725  0.20182286
   0.91915937  0.58009783  0.20463623
   0.58392481  0.91051142  0.06465662
   0.74866184  0.73321338  0.36146159
   0.49823777  0.74489751  0.36021779
   0.51718030  0.67500145  0.41732954
   0.66028896  0.65992304  0.42057491
   0.45667723  0.59394761  0.50240607
   0.48964642  0.50891892  0.41720109
   0.64615739  0.49104281  0.41849734
   0.48943311  0.37161887  0.45754268
   0.58123071  0.54206266  0.50011980
   0.32607032  0.48641831  0.42907564
   0.39085905  0.42338132  0.50809132
   0.32647563  0.33195155  0.42187776
   0.51710675  0.88695964  0.50192597
   0.43778626  0.83380539  0.49825384
   0.55626112  0.84864010  0.51612479
   0.52889073  0.94385410  0.53385810
   0.54544007  0.92140786  0.45958687
Direct configuration=     5
   0.00003917  0.99405901  0.03033624
   0.33275360  0.15837075  0.17008906
   0.15721200  0.32180035  0.31089711
   0.99940599  0.24336840  0.03090695
   0.33112050  0.40956871  0.16736282
   0.16489353  0.07057290  0.31598743
   0.24944105  0.24294864  0.03007226
   0.08325102  0.41124385  0.17040873
   0.40989880  0.06072202  0.31032090
   0.25007399  0.99406317  0.02938641
   0.08356700  0.15929873  0.17109050
   0.40986351  0.32711024  0.30354974
   0.50116035  0.99429240  0.03002322
   0.83340378  0.16050958  0.17064895
   0.67860277  0.33119657  0.31047157
   0.50015182  0.24298369  0.02992081
   0.83441401  0.41199105  0.16916542
   0.66772150  0.07660911  0.31043988
   0.74972291  0.24325398  0.03048782
   0.58379476  0.40948908  0.16782093
   0.91509782  0.07454016  0.31045788
   0.75033990  0.99380801  0.03064963
   0.58279714  0.16052626  0.17149054
   0.91731287  0.32689769  0.31125979
   0.99974462  0.49285546  0.02920928
   0.33198047  0.66077687  0.16777516
   0.16772281  0.82605775  0.31154614
   0.00109100  0.74435055  0.02810917
   0.33349196  0.90933701  0.16783895
   0.16601270  0.58039554  0.31598990
   0.25007116  0.74357714  0.02818636
   0.08459922  0.91048042  0.16978392
   0.41018729  0.57913969  0.30328025
   0.24904571  0.49282572  0.02896259
   0.08460138  0.66070276  0.16886640
   0.41557993  0.82853812  0.31073815
   0.50032839  0.49326695  0.02887153
   0.83726968  0.66168843  0.16664619
   0.66878473  0.82978071  0.31161650
   0.50014280  0.74398794  0.02888695
   0.83320552  0.90850033  0.17027481
   0.67621344  0.58178159  0.30191321
   0.75095159  0.74448588  0.02872753
   0.58268294  0.90897436  0.17004683
   0.92637337  0.58216178  0.31140669
   0.75060234  0.49312157  0.02850067
   0.58364255  0.66025237  0.16718476
   0.92279632  0.83023274  0.31101212
   0.16651264  0.32704763  0.99466351
   0.00123828  0.99403848  0.13455324
   0.34215050  0.16553146  0.28183998
   0.41716817  0.32683296  0.99446977
   0.24961448  0.99292203  0.13242391
   0.08418224  0.16218421  0.27706969
   0.41723015  0.07783138  0.99464225
   0.24826612  0.24283336  0.13379058
   0.08561679  0.40888626  0.27756176
   0.16708635  0.07819813  0.99457951
   0.99798110  0.24217736  0.13543751
   0.32661379  0.40786155  0.27433620
   0.08276733  0.16041503  0.06609738
   0.41599200  0.32715141  0.20085588
   0.24137842  0.97514261  0.35073818
   0.33334377  0.16054846  0.06607804
   0.16444740  0.32595509  0.20532979
   0.98965489  0.98436904  0.34938274
   0.33334884  0.40968382  0.06514741
   0.17081398  0.07753043  0.20614371
   0.99873958  0.24259695  0.34764052
   0.08177379  0.40885313  0.06583659
   0.41517561  0.07488961  0.20345560
   0.24506759  0.25029560  0.36507113
   0.66670199  0.32670069  0.99404112
   0.50149761  0.99409516  0.13348709
   0.83650436  0.16153591  0.27232866
   0.91635954  0.32605511  0.99436692
   0.74995085  0.99429150  0.13502226
   0.58135078  0.16360022  0.28054393
   0.91619963  0.07681615  0.99517895
   0.74999977  0.24393293  0.13492412
   0.58096942  0.41542338  0.27958793
   0.66681299  0.07763530  0.99474386
   0.50067479  0.24296540  0.13397281
   0.83636353  0.41920348  0.27545264
   0.58381220  0.16066648  0.06616649
   0.91720486  0.33043288  0.20712444
   0.75561626  0.00284656  0.34604377
   0.83300855  0.16033780  0.06608422
   0.66739444  0.32933664  0.20481471
   0.50412373  0.98502373  0.34849265
   0.83345507  0.40968284  0.06502547
   0.66506417  0.07824451  0.20786206
   0.58378578  0.40928348  0.06544464
   0.91674283  0.07368604  0.20685392
   0.76057072  0.24307010  0.34705790
   0.16682248  0.82776197  0.99271050
   0.99954063  0.49396789  0.13299346
   0.33469443  0.66328489  0.27390386
   0.41717477  0.82724773  0.99336795
   0.24817916  0.49236483  0.13243946
   0.08290373  0.66180795  0.27491729
   0.41625428  0.57580884  0.99394514
   0.24941781  0.74310807  0.13170413
   0.07914211  0.90535974  0.27400646
   0.16607332  0.57479754  0.99364238
   0.00166427  0.74443608  0.13162300
   0.33270013  0.90442671  0.27116802
   0.08369646  0.66068245  0.06353557
   0.41682710  0.82597622  0.20293100
   0.25111365  0.48554899  0.36686599
   0.33306491  0.66062142  0.06382777
   0.16673065  0.82679494  0.20398039
   0.99263606  0.49349631  0.34946836
   0.33366496  0.90983965  0.06435428
   0.16606138  0.57667560  0.20367998
   0.99917102  0.74084468  0.34812852
   0.08335298  0.91092543  0.06407164
   0.41607955  0.57715974  0.19951935
   0.25741742  0.75380984  0.34985529
   0.66852012  0.82803256  0.99401443
   0.50198378  0.49426959  0.13247432
   0.83427469  0.65940807  0.27530734
   0.91659864  0.82784691  0.99327286
   0.75205098  0.49393158  0.13210654
   0.58185453  0.64760300  0.27625138
   0.91633882  0.57600065  0.99319251
   0.75082191  0.74274341  0.13216234
   0.58081163  0.90727994  0.27325765
   0.66643472  0.57551915  0.99392202
   0.50043662  0.74401633  0.13187077
   0.83503348  0.90492683  0.27494913
   0.58377723  0.66067263  0.06386003
   0.91675553  0.82455901  0.20449195
   0.73888067  0.49807766  0.36526569
   0.83459299  0.66107051  0.06363974
   0.66577860  0.82258946  0.20375821
   0.83391025  0.91060363  0.06614008
   0.67098290  0.57663725  0.20182286
   0.91915937  0.58009783  0.20463623
   0.58392481  0.91051142  0.06465662
   0.74866184  0.73321338  0.36146159
   0.49823777  0.74489751  0.36021779
   0.51718030  0.67500145  0.41732954
   0.66028896  0.65992304  0.42057491
   0.45667723  0.59394761  0.50240607
   0.48964642  0.50891892  0.41720109
   0.64615739  0.49104281  0.41849734
   0.48943311  0.37161887  0.45754268
   0.58123071  0.54206266  0.50011980
   0.32607032  0.48641831  0.42907564
   0.39085905  0.42338132  0.50809132
   0.32647563  0.33195155  0.42187776