 157 157   0   0
  0.3048133E+02  0.1552620E-08  0.1552619E-08  0.2292320E-08  0.5000000E-15
  1.000000000000000E-004
  CAR 
 CeO2                                    
      2.95960625    -36.84603730  301     -0.21431248      1.00000000
    -36.846  0.0000E+00  0.0000E+00  0.0000E+00  0.0000E+00
    -36.713  0.0000E+00  0.0000E+00  0.0000E+00  0.0000E+00
    -36.581  0.0000E+00  0.0000E+00  0.0000E+00  0.0000E+00
    -36.448  0.0000E+00  0.0000E+00  0.0000E+00  0.0000E+00
    -36.315  0.0000E+00  0.0000E+00  0.0000E+00  0.0000E+00
    -36.183  0.0000E+00  0.0000E+00  0.0000E+00  0.0000E+00
    -36.050  0.0000E+00  0.0000E+00  0.0000E+00  0.0000E+00
    -35.917  0.0000E+00  0.0000E+00  0.0000E+00  0.0000E+00
    -35.785  0.0000E+00  0.0000E+00  0.0000E+00  0.0000E+00
    -35.652  0.0000E+00  0.0000E+00  0.0000E+00  0.0000E+00
    -35.519  0.7672E-13  0.1400E-12  0.1018E-13  0.1857E-13
    -35.386  0.8842E-08  0.1336E-07  0.1173E-08  0.1773E-08
    -35.254  0.3698E-04  0.4695E-04  0.4907E-05  0.6232E-05
    -35.121  0.7382E-02  0.8085E-02  0.9844E-03  0.1079E-02
    -34.988  0.1385E+00  0.1391E+00  0.1937E-01  0.1953E-01
    -34.856  0.5063E+00  0.5023E+00  0.8655E-01  0.8618E-01
    -34.723  0.3327E+00  0.3341E+00  0.1307E+00  0.1305E+00
    -34.590  0.4124E-01  0.4234E-01  0.1362E+00  0.1361E+00
    -34.458  0.3756E-02  0.4019E-02  0.1367E+00  0.1367E+00
    -34.325  0.4207E-04  0.4825E-04  0.1367E+00  0.1367E+00
    -34.192  0.1892E-07  0.2342E-07  0.1367E+00  0.1367E+00
    -34.060  0.4344E-10  0.3833E-12  0.1367E+00  0.1367E+00
    -33.927  0.8296E-06  0.0000E+00  0.1367E+00  0.1367E+00
    -33.794  0.5670E-03  0.0000E+00  0.1367E+00  0.1367E+00
    -33.662  0.1716E-01  0.8922E-13  0.1390E+00  0.1367E+00
    -33.529  0.4679E-01  0.9072E-08  0.1452E+00  0.1367E+00
    -33.396  0.6911E-01  0.3176E-04  0.1544E+00  0.1367E+00
    -33.264  0.3916E-01  0.4398E-02  0.1596E+00  0.1373E+00
    -33.131  0.3036E-02  0.3565E-01  0.1600E+00  0.1420E+00
    -32.998  0.1885E-04  0.5456E-01  0.1600E+00  0.1492E+00
    -32.865  0.5194E-08  0.6501E-01  0.1600E+00  0.1578E+00
    -32.733  0.4916E-13  0.1582E-01  0.1600E+00  0.1599E+00
    -32.600  0.0000E+00  0.3900E-03  0.1600E+00  0.1600E+00
    -32.467  0.0000E+00  0.5613E-06  0.1600E+00  0.1600E+00
    -32.335  0.0000E+00  0.3098E-10  0.1600E+00  0.1600E+00
    -32.202  0.0000E+00  0.5578E-16  0.1600E+00  0.1600E+00
    -32.069  0.0000E+00  0.0000E+00  0.1600E+00  0.1600E+00
    -31.937  0.0000E+00  0.0000E+00  0.1600E+00  0.1600E+00
    -31.804  0.0000E+00  0.0000E+00  0.1600E+00  0.1600E+00
    -31.671  0.0000E+00  0.0000E+00  0.1600E+00  0.1600E+00
    -31.539  0.0000E+00  0.0000E+00  0.1600E+00  0.1600E+00
    -31.406  0.0000E+00  0.0000E+00  0.1600E+00  0.1600E+00
    -31.273  0.0000E+00  0.0000E+00  0.1600E+00  0.1600E+00
    -31.141  0.0000E+00  0.0000E+00  0.1600E+00  0.1600E+00
    -31.008  0.0000E+00  0.0000E+00  0.1600E+00  0.1600E+00
    -30.875  0.0000E+00  0.0000E+00  0.1600E+00  0.1600E+00
    -30.743  0.0000E+00  0.0000E+00  0.1600E+00  0.1600E+00
    -30.610  0.0000E+00  0.0000E+00  0.1600E+00  0.1600E+00
    -30.477  0.0000E+00  0.0000E+00  0.1600E+00  0.1600E+00
    -30.344  0.0000E+00  0.0000E+00  0.1600E+00  0.1600E+00
    -30.212  0.0000E+00  0.0000E+00  0.1600E+00  0.1600E+00
    -30.079  0.0000E+00  0.0000E+00  0.1600E+00  0.1600E+00
    -29.946  0.0000E+00  0.0000E+00  0.1600E+00  0.1600E+00
    -29.814  0.0000E+00  0.0000E+00  0.1600E+00  0.1600E+00
    -29.681  0.0000E+00  0.0000E+00  0.1600E+00  0.1600E+00
    -29.548  0.0000E+00  0.0000E+00  0.1600E+00  0.1600E+00
    -29.416  0.0000E+00  0.0000E+00  0.1600E+00  0.1600E+00
    -29.283  0.0000E+00  0.0000E+00  0.1600E+00  0.1600E+00
    -29.150  0.0000E+00  0.0000E+00  0.1600E+00  0.1600E+00
    -29.018  0.0000E+00  0.0000E+00  0.1600E+00  0.1600E+00
    -28.885  0.0000E+00  0.0000E+00  0.1600E+00  0.1600E+00
    -28.752  0.0000E+00  0.0000E+00  0.1600E+00  0.1600E+00
    -28.620  0.0000E+00  0.0000E+00  0.1600E+00  0.1600E+00
    -28.487  0.0000E+00  0.0000E+00  0.1600E+00  0.1600E+00
    -28.354  0.0000E+00  0.0000E+00  0.1600E+00  0.1600E+00
    -28.221  0.0000E+00  0.0000E+00  0.1600E+00  0.1600E+00
    -28.089  0.0000E+00  0.0000E+00  0.1600E+00  0.1600E+00
    -27.956  0.0000E+00  0.0000E+00  0.1600E+00  0.1600E+00
    -27.823  0.0000E+00  0.0000E+00  0.1600E+00  0.1600E+00
    -27.691  0.0000E+00  0.0000E+00  0.1600E+00  0.1600E+00
    -27.558  0.0000E+00  0.0000E+00  0.1600E+00  0.1600E+00
    -27.425  0.0000E+00  0.0000E+00  0.1600E+00  0.1600E+00
    -27.293  0.0000E+00  0.0000E+00  0.1600E+00  0.1600E+00
    -27.160  0.0000E+00  0.0000E+00  0.1600E+00  0.1600E+00
    -27.027  0.0000E+00  0.0000E+00  0.1600E+00  0.1600E+00
    -26.895  0.0000E+00  0.0000E+00  0.1600E+00  0.1600E+00
    -26.762  0.0000E+00  0.0000E+00  0.1600E+00  0.1600E+00
    -26.629  0.0000E+00  0.0000E+00  0.1600E+00  0.1600E+00
    -26.497  0.0000E+00  0.0000E+00  0.1600E+00  0.1600E+00
    -26.364  0.0000E+00  0.0000E+00  0.1600E+00  0.1600E+00
    -26.231  0.0000E+00  0.0000E+00  0.1600E+00  0.1600E+00
    -26.099  0.0000E+00  0.0000E+00  0.1600E+00  0.1600E+00
    -25.966  0.0000E+00  0.0000E+00  0.1600E+00  0.1600E+00
    -25.833  0.0000E+00  0.0000E+00  0.1600E+00  0.1600E+00
    -25.700  0.0000E+00  0.0000E+00  0.1600E+00  0.1600E+00
    -25.568  0.0000E+00  0.0000E+00  0.1600E+00  0.1600E+00
    -25.435  0.0000E+00  0.0000E+00  0.1600E+00  0.1600E+00
    -25.302  0.0000E+00  0.0000E+00  0.1600E+00  0.1600E+00
    -25.170  0.0000E+00  0.0000E+00  0.1600E+00  0.1600E+00
    -25.037  0.0000E+00  0.0000E+00  0.1600E+00  0.1600E+00
    -24.904  0.0000E+00  0.0000E+00  0.1600E+00  0.1600E+00
    -24.772  0.0000E+00  0.0000E+00  0.1600E+00  0.1600E+00
    -24.639  0.0000E+00  0.0000E+00  0.1600E+00  0.1600E+00
    -24.506  0.0000E+00  0.0000E+00  0.1600E+00  0.1600E+00
    -24.374  0.0000E+00  0.0000E+00  0.1600E+00  0.1600E+00
    -24.241  0.0000E+00  0.0000E+00  0.1600E+00  0.1600E+00
    -24.108  0.0000E+00  0.0000E+00  0.1600E+00  0.1600E+00
    -23.976  0.0000E+00  0.0000E+00  0.1600E+00  0.1600E+00
    -23.843  0.0000E+00  0.0000E+00  0.1600E+00  0.1600E+00
    -23.710  0.0000E+00  0.0000E+00  0.1600E+00  0.1600E+00
    -23.577  0.0000E+00  0.0000E+00  0.1600E+00  0.1600E+00
    -23.445  0.0000E+00  0.0000E+00  0.1600E+00  0.1600E+00
    -23.312  0.0000E+00  0.0000E+00  0.1600E+00  0.1600E+00
    -23.179  0.0000E+00  0.0000E+00  0.1600E+00  0.1600E+00
    -23.047  0.0000E+00  0.0000E+00  0.1600E+00  0.1600E+00
    -22.914  0.0000E+00  0.0000E+00  0.1600E+00  0.1600E+00
    -22.781  0.0000E+00  0.0000E+00  0.1600E+00  0.1600E+00
    -22.649  0.0000E+00  0.0000E+00  0.1600E+00  0.1600E+00
    -22.516  0.0000E+00  0.0000E+00  0.1600E+00  0.1600E+00
    -22.383  0.0000E+00  0.0000E+00  0.1600E+00  0.1600E+00
    -22.251  0.0000E+00  0.0000E+00  0.1600E+00  0.1600E+00
    -22.118  0.0000E+00  0.0000E+00  0.1600E+00  0.1600E+00
    -21.985  0.0000E+00  0.0000E+00  0.1600E+00  0.1600E+00
    -21.853  0.0000E+00  0.0000E+00  0.1600E+00  0.1600E+00
    -21.720  0.0000E+00  0.0000E+00  0.1600E+00  0.1600E+00
    -21.587  0.0000E+00  0.0000E+00  0.1600E+00  0.1600E+00
    -21.455  0.0000E+00  0.0000E+00  0.1600E+00  0.1600E+00
    -21.322  0.0000E+00  0.0000E+00  0.1600E+00  0.1600E+00
    -21.189  0.0000E+00  0.0000E+00  0.1600E+00  0.1600E+00
    -21.056  0.0000E+00  0.0000E+00  0.1600E+00  0.1600E+00
    -20.924  0.0000E+00  0.0000E+00  0.1600E+00  0.1600E+00
    -20.791  0.0000E+00  0.0000E+00  0.1600E+00  0.1600E+00
    -20.658  0.2650E-16  0.2371E-16  0.1600E+00  0.1600E+00
    -20.526  0.1918E-10  0.1678E-10  0.1600E+00  0.1600E+00
    -20.393  0.4601E-06  0.4156E-06  0.1600E+00  0.1600E+00
    -20.260  0.4192E-03  0.3916E-03  0.1601E+00  0.1601E+00
    -20.128  0.1767E-01  0.1711E-01  0.1624E+00  0.1623E+00
    -19.995  0.4991E-01  0.4998E-01  0.1690E+00  0.1690E+00
    -19.862  0.4663E-01  0.4541E-01  0.1752E+00  0.1750E+00
    -19.730  0.1750E+00  0.1693E+00  0.1984E+00  0.1974E+00
    -19.597  0.2817E+00  0.2795E+00  0.2358E+00  0.2345E+00
    -19.464  0.1505E+00  0.1536E+00  0.2558E+00  0.2549E+00
    -19.332  0.1483E+00  0.1444E+00  0.2755E+00  0.2741E+00
    -19.199  0.1120E+00  0.1164E+00  0.2903E+00  0.2895E+00
    -19.066  0.8309E-01  0.8262E-01  0.3013E+00  0.3005E+00
    -18.933  0.1416E+00  0.1375E+00  0.3201E+00  0.3187E+00
    -18.801  0.1058E+00  0.1057E+00  0.3342E+00  0.3328E+00
    -18.668  0.8917E-01  0.8517E-01  0.3460E+00  0.3441E+00
    -18.535  0.1332E+00  0.1268E+00  0.3637E+00  0.3609E+00
    -18.403  0.1616E+00  0.1618E+00  0.3851E+00  0.3824E+00
    -18.270  0.1080E+00  0.1020E+00  0.3995E+00  0.3959E+00
    -18.137  0.7709E-01  0.8059E-01  0.4097E+00  0.4066E+00
    -18.005  0.9360E-01  0.8908E-01  0.4221E+00  0.4184E+00
    -17.872  0.7207E-01  0.8755E-01  0.4317E+00  0.4300E+00
    -17.739  0.2555E-01  0.3470E-01  0.4351E+00  0.4346E+00
    -17.607  0.3568E-01  0.3096E-01  0.4398E+00  0.4387E+00
    -17.474  0.1421E+00  0.1336E+00  0.4586E+00  0.4565E+00
    -17.341  0.3446E+00  0.3395E+00  0.5044E+00  0.5015E+00
    -17.209  0.4350E+00  0.4322E+00  0.5621E+00  0.5589E+00
    -17.076  0.3214E+00  0.3234E+00  0.6047E+00  0.6018E+00
    -16.943  0.1819E+00  0.1765E+00  0.6289E+00  0.6252E+00
    -16.811  0.1010E+00  0.8670E-01  0.6423E+00  0.6367E+00
    -16.678  0.8794E-01  0.7966E-01  0.6539E+00  0.6472E+00
    -16.545  0.8560E-01  0.7556E-01  0.6653E+00  0.6573E+00
    -16.412  0.1161E+00  0.8568E-01  0.6807E+00  0.6686E+00
    -16.280  0.1213E+00  0.1173E+00  0.6968E+00  0.6842E+00
    -16.147  0.8982E-01  0.1003E+00  0.7087E+00  0.6975E+00
    -16.014  0.7404E-01  0.9545E-01  0.7185E+00  0.7102E+00
    -15.882  0.5580E-01  0.8848E-01  0.7259E+00  0.7219E+00
    -15.749  0.1398E+00  0.1175E+00  0.7445E+00  0.7375E+00
    -15.616  0.1077E+00  0.1119E+00  0.7588E+00  0.7524E+00
    -15.484  0.1170E+00  0.1242E+00  0.7743E+00  0.7688E+00
    -15.351  0.1332E+00  0.1343E+00  0.7920E+00  0.7867E+00
    -15.218  0.1545E+00  0.1425E+00  0.8125E+00  0.8056E+00
    -15.086  0.1217E+00  0.1216E+00  0.8286E+00  0.8217E+00
    -14.953  0.1233E+00  0.1306E+00  0.8450E+00  0.8390E+00
    -14.820  0.1879E+00  0.1760E+00  0.8699E+00  0.8624E+00
    -14.688  0.1945E+00  0.1866E+00  0.8957E+00  0.8871E+00
    -14.555  0.1330E+00  0.1502E+00  0.9133E+00  0.9071E+00
    -14.422  0.1170E+00  0.1140E+00  0.9289E+00  0.9222E+00
    -14.290  0.6512E-01  0.8395E-01  0.9375E+00  0.9333E+00
    -14.157  0.4115E-01  0.6041E-01  0.9430E+00  0.9413E+00
    -14.024  0.3933E-01  0.3147E-01  0.9482E+00  0.9455E+00
    -13.891  0.3503E-01  0.3796E-01  0.9528E+00  0.9505E+00
    -13.759  0.3656E-02  0.1971E-01  0.9533E+00  0.9532E+00
    -13.626  0.2422E-04  0.1299E-02  0.9533E+00  0.9533E+00
    -13.493  0.6819E-08  0.4991E-05  0.9533E+00  0.9533E+00
    -13.361  0.6745E-13  0.7390E-09  0.9533E+00  0.9533E+00
    -13.228  0.0000E+00  0.3631E-14  0.9533E+00  0.9533E+00
    -13.095  0.1151E-13  0.1142E-13  0.9533E+00  0.9533E+00
    -12.963  0.1751E-08  0.1741E-08  0.9533E+00  0.9533E+00
    -12.830  0.8790E-05  0.8756E-05  0.9533E+00  0.9533E+00
    -12.697  0.1627E-02  0.1624E-02  0.9536E+00  0.9535E+00
    -12.565  0.1449E-01  0.1448E-01  0.9555E+00  0.9555E+00
    -12.432  0.8683E-02  0.8692E-02  0.9566E+00  0.9566E+00
    -12.299  0.3149E-03  0.3158E-03  0.9567E+00  0.9567E+00
    -12.167  0.4837E-06  0.4860E-06  0.9567E+00  0.9567E+00
    -12.034  0.2593E-10  0.2610E-10  0.9567E+00  0.9567E+00
    -11.901  0.4463E-16  0.4463E-16  0.9567E+00  0.9567E+00
    -11.768  0.0000E+00  0.0000E+00  0.9567E+00  0.9567E+00
    -11.636  0.0000E+00  0.0000E+00  0.9567E+00  0.9567E+00
    -11.503  0.0000E+00  0.0000E+00  0.9567E+00  0.9567E+00
    -11.370  0.0000E+00  0.0000E+00  0.9567E+00  0.9567E+00
    -11.238  0.0000E+00  0.0000E+00  0.9567E+00  0.9567E+00
    -11.105  0.0000E+00  0.0000E+00  0.9567E+00  0.9567E+00
    -10.972  0.0000E+00  0.0000E+00  0.9567E+00  0.9567E+00
    -10.840  0.0000E+00  0.0000E+00  0.9567E+00  0.9567E+00
    -10.707  0.0000E+00  0.0000E+00  0.9567E+00  0.9567E+00
    -10.574  0.0000E+00  0.0000E+00  0.9567E+00  0.9567E+00
    -10.442  0.0000E+00  0.0000E+00  0.9567E+00  0.9567E+00
    -10.309  0.0000E+00  0.0000E+00  0.9567E+00  0.9567E+00
    -10.176  0.0000E+00  0.0000E+00  0.9567E+00  0.9567E+00
    -10.044  0.0000E+00  0.0000E+00  0.9567E+00  0.9567E+00
     -9.911  0.0000E+00  0.0000E+00  0.9567E+00  0.9567E+00
     -9.778  0.0000E+00  0.0000E+00  0.9567E+00  0.9567E+00
     -9.646  0.0000E+00  0.0000E+00  0.9567E+00  0.9567E+00
     -9.513  0.0000E+00  0.0000E+00  0.9567E+00  0.9567E+00
     -9.380  0.0000E+00  0.0000E+00  0.9567E+00  0.9567E+00
     -9.247  0.0000E+00  0.0000E+00  0.9567E+00  0.9567E+00
     -9.115  0.0000E+00  0.0000E+00  0.9567E+00  0.9567E+00
     -8.982  0.0000E+00  0.0000E+00  0.9567E+00  0.9567E+00
     -8.849  0.0000E+00  0.0000E+00  0.9567E+00  0.9567E+00
     -8.717  0.0000E+00  0.0000E+00  0.9567E+00  0.9567E+00
     -8.584  0.0000E+00  0.0000E+00  0.9567E+00  0.9567E+00
     -8.451  0.0000E+00  0.0000E+00  0.9567E+00  0.9567E+00
     -8.319  0.0000E+00  0.0000E+00  0.9567E+00  0.9567E+00
     -8.186  0.0000E+00  0.0000E+00  0.9567E+00  0.9567E+00
     -8.053  0.0000E+00  0.0000E+00  0.9567E+00  0.9567E+00
     -7.921  0.0000E+00  0.0000E+00  0.9567E+00  0.9567E+00
     -7.788  0.0000E+00  0.0000E+00  0.9567E+00  0.9567E+00
     -7.655  0.0000E+00  0.0000E+00  0.9567E+00  0.9567E+00
     -7.523  0.0000E+00  0.0000E+00  0.9567E+00  0.9567E+00
     -7.390  0.0000E+00  0.0000E+00  0.9567E+00  0.9567E+00
     -7.257  0.0000E+00  0.0000E+00  0.9567E+00  0.9567E+00
     -7.124  0.0000E+00  0.0000E+00  0.9567E+00  0.9567E+00
     -6.992  0.0000E+00  0.0000E+00  0.9567E+00  0.9567E+00
     -6.859  0.0000E+00  0.0000E+00  0.9567E+00  0.9567E+00
     -6.726  0.0000E+00  0.0000E+00  0.9567E+00  0.9567E+00
     -6.594  0.8367E-17  0.0000E+00  0.9567E+00  0.9567E+00
     -6.461  0.7161E-11  0.2132E-12  0.9567E+00  0.9567E+00
     -6.328  0.1942E-06  0.1524E-07  0.9567E+00  0.9567E+00
     -6.196  0.1815E-03  0.3654E-04  0.9567E+00  0.9567E+00
     -6.063  0.6969E-02  0.3368E-02  0.9576E+00  0.9571E+00
     -5.930  0.1557E-01  0.1622E-01  0.9597E+00  0.9593E+00
     -5.798  0.2382E-02  0.5399E-02  0.9600E+00  0.9600E+00
     -5.665  0.1825E-04  0.1003E-03  0.9600E+00  0.9600E+00
     -5.532  0.5434E-08  0.7452E-07  0.9600E+00  0.9600E+00
     -5.400  0.1832E-05  0.1199E-09  0.9600E+00  0.9600E+00
     -5.267  0.6869E-03  0.1503E-05  0.9601E+00  0.9600E+00
     -5.134  0.1246E-01  0.7634E-03  0.9617E+00  0.9601E+00
     -5.002  0.3944E-01  0.2281E-01  0.9670E+00  0.9631E+00
     -4.869  0.8147E-01  0.8087E-01  0.9778E+00  0.9739E+00
     -4.736  0.1149E+00  0.9528E-01  0.9930E+00  0.9865E+00
     -4.603  0.6878E-01  0.6226E-01  0.1002E+01  0.9948E+00
     -4.471  0.3744E-01  0.4567E-01  0.1007E+01  0.1001E+01
     -4.338  0.1527E+00  0.1599E+00  0.1027E+01  0.1022E+01
     -4.205  0.2565E+00  0.2482E+00  0.1061E+01  0.1055E+01
     -4.073  0.2716E+00  0.2541E+00  0.1097E+01  0.1089E+01
     -3.940  0.3684E+00  0.3494E+00  0.1146E+01  0.1135E+01
     -3.807  0.3378E+00  0.3150E+00  0.1191E+01  0.1177E+01
     -3.675  0.2737E+00  0.2485E+00  0.1227E+01  0.1210E+01
     -3.542  0.2750E+00  0.2365E+00  0.1264E+01  0.1241E+01
     -3.409  0.2736E+00  0.2772E+00  0.1300E+01  0.1278E+01
     -3.277  0.3175E+00  0.3275E+00  0.1342E+01  0.1321E+01
     -3.144  0.3172E+00  0.2937E+00  0.1384E+01  0.1360E+01
     -3.011  0.2778E+00  0.2744E+00  0.1421E+01  0.1397E+01
     -2.879  0.2487E+00  0.2347E+00  0.1454E+01  0.1428E+01
     -2.746  0.2077E+00  0.1912E+00  0.1482E+01  0.1453E+01
     -2.613  0.2262E+00  0.2279E+00  0.1512E+01  0.1484E+01
     -2.480  0.2767E+00  0.2548E+00  0.1549E+01  0.1517E+01
     -2.348  0.3986E+00  0.3734E+00  0.1602E+01  0.1567E+01
     -2.215  0.3885E+00  0.3713E+00  0.1653E+01  0.1616E+01
     -2.082  0.3940E+00  0.3958E+00  0.1705E+01  0.1669E+01
     -1.950  0.4918E+00  0.4845E+00  0.1771E+01  0.1733E+01
     -1.817  0.5219E+00  0.5153E+00  0.1840E+01  0.1801E+01
     -1.684  0.4207E+00  0.4256E+00  0.1896E+01  0.1858E+01
     -1.552  0.3800E+00  0.3678E+00  0.1946E+01  0.1907E+01
     -1.419  0.3996E+00  0.3646E+00  0.1999E+01  0.1955E+01
     -1.286  0.2435E+00  0.1953E+00  0.2031E+01  0.1981E+01
     -1.154  0.1318E+00  0.5427E-01  0.2049E+01  0.1988E+01
     -1.021  0.1430E+00  0.5592E-01  0.2068E+01  0.1996E+01
     -0.888  0.1457E+00  0.7242E-01  0.2087E+01  0.2005E+01
     -0.756  0.7943E-01  0.7414E-01  0.2098E+01  0.2015E+01
     -0.623  0.4179E-01  0.6308E-01  0.2103E+01  0.2023E+01
     -0.490  0.2344E-01  0.7111E-01  0.2106E+01  0.2033E+01
     -0.358  0.1820E-02  0.8473E-01  0.2107E+01  0.2044E+01
     -0.225  0.1341E-04  0.6604E-01  0.2107E+01  0.2053E+01
     -0.092  0.1227E-02  0.6077E-01  0.2107E+01  0.2061E+01
      0.041  0.1354E-01  0.6710E-01  0.2109E+01  0.2070E+01
      0.173  0.9902E-02  0.6430E-01  0.2110E+01  0.2078E+01
      0.306  0.4494E-03  0.3446E-01  0.2110E+01  0.2083E+01
      0.439  0.8042E-04  0.1209E-01  0.2110E+01  0.2084E+01
      0.571  0.1224E-01  0.2725E-01  0.2112E+01  0.2088E+01
      0.704  0.2053E+00  0.2043E+00  0.2139E+01  0.2115E+01
      0.837  0.9302E+00  0.9115E+00  0.2262E+01  0.2236E+01
      0.969  0.1574E+01  0.1565E+01  0.2471E+01  0.2444E+01
      1.102  0.1623E+01  0.1678E+01  0.2687E+01  0.2666E+01
      1.235  0.6217E+00  0.7528E+00  0.2769E+01  0.2766E+01
      1.367  0.3241E-01  0.5261E-01  0.2773E+01  0.2773E+01
      1.500  0.1093E-03  0.2674E-03  0.2773E+01  0.2773E+01
      1.633  0.1595E-07  0.6360E-07  0.2773E+01  0.2773E+01
      1.765  0.8488E-13  0.5731E-12  0.2773E+01  0.2773E+01
      1.898  0.0000E+00  0.0000E+00  0.2773E+01  0.2773E+01
      2.031  0.0000E+00  0.0000E+00  0.2773E+01  0.2773E+01
      2.163  0.0000E+00  0.0000E+00  0.2773E+01  0.2773E+01
      2.296  0.0000E+00  0.0000E+00  0.2773E+01  0.2773E+01
      2.429  0.0000E+00  0.0000E+00  0.2773E+01  0.2773E+01
      2.562  0.0000E+00  0.0000E+00  0.2773E+01  0.2773E+01
      2.694  0.0000E+00  0.0000E+00  0.2773E+01  0.2773E+01
      2.827  0.0000E+00  0.0000E+00  0.2773E+01  0.2773E+01
      2.960  0.0000E+00  0.0000E+00  0.2773E+01  0.2773E+01
