  157  157  300    2
  0.3048133E+02  0.1552620E-08  0.1552619E-08  0.2292320E-08  0.5000000E-15
  1.000000000000000E-004
  CAR 
 CeO2                                    
   1248      1    832
 
  0.0000000E+00  0.0000000E+00  0.0000000E+00  0.1000000E+01
    1      -35.029367    -35.036690   1.000000   1.000000
    2      -35.019822    -35.022064   1.000000   1.000000
    3      -34.995810    -34.995816   1.000000   1.000000
    4      -34.979561    -34.987246   1.000000   1.000000
    5      -34.969443    -34.966835   1.000000   1.000000
    6      -34.959886    -34.959733   1.000000   1.000000
    7      -34.944630    -34.945455   1.000000   1.000000
    8      -34.941289    -34.940855   1.000000   1.000000
    9      -34.936836    -34.936382   1.000000   1.000000
   10      -34.932973    -34.932505   1.000000   1.000000
   11      -34.930730    -34.930235   1.000000   1.000000
   12      -34.918094    -34.917809   1.000000   1.000000
   13      -34.912318    -34.912052   1.000000   1.000000
   14      -34.907070    -34.906414   1.000000   1.000000
   15      -34.897983    -34.897681   1.000000   1.000000
   16      -34.893530    -34.892651   1.000000   1.000000
   17      -34.891077    -34.890471   1.000000   1.000000
   18      -34.889323    -34.889181   1.000000   1.000000
   19      -34.884923    -34.884368   1.000000   1.000000
   20      -34.880592    -34.880285   1.000000   1.000000
   21      -34.877974    -34.877735   1.000000   1.000000
   22      -34.874915    -34.874480   1.000000   1.000000
   23      -34.874472    -34.874076   1.000000   1.000000
   24      -34.871529    -34.870850   1.000000   1.000000
   25      -34.870845    -34.870266   1.000000   1.000000
   26      -34.866066    -34.865598   1.000000   1.000000
   27      -34.865314    -34.864954   1.000000   1.000000
   28      -34.862290    -34.861993   1.000000   1.000000
   29      -34.857519    -34.857336   1.000000   1.000000
   30      -34.856768    -34.856394   1.000000   1.000000
   31      -34.855168    -34.854816   1.000000   1.000000
   32      -34.849984    -34.849140   1.000000   1.000000
   33      -34.845849    -34.845446   1.000000   1.000000
   34      -34.841099    -34.840708   1.000000   1.000000
   35      -34.836925    -34.835985   1.000000   1.000000
   36      -34.833959    -34.833367   1.000000   1.000000
   37      -34.824632    -34.823171   1.000000   1.000000
   38      -34.816634    -34.814562   1.000000   1.000000
   39      -34.809353    -34.803620   1.000000   1.000000
   40      -34.791208    -34.788506   1.000000   1.000000
   41      -34.665160    -34.662134   1.000000   1.000000
   42      -33.638148    -33.175198   1.000000   1.000000
   43      -33.626778    -33.157925   1.000000   1.000000
   44      -33.520038    -33.068006   1.000000   1.000000
   45      -33.438883    -32.968082   1.000000   1.000000
   46      -33.428359    -32.956116   1.000000   1.000000
   47      -33.427782    -32.955613   1.000000   1.000000
   48      -33.356234    -32.889165   1.000000   1.000000
   49      -20.097001    -20.095613   1.000000   1.000000
   50      -20.072472    -20.069931   1.000000   1.000000
   51      -20.060187    -20.058478   1.000000   1.000000
   52      -19.892057    -19.892022   1.000000   1.000000
   53      -19.851020    -19.846166   1.000000   1.000000
   54      -19.778088    -19.774430   1.000000   1.000000
   55      -19.771933    -19.767160   1.000000   1.000000
   56      -19.748611    -19.746246   1.000000   1.000000
   57      -19.741578    -19.739916   1.000000   1.000000
   58      -19.735373    -19.730812   1.000000   1.000000
   59      -19.725346    -19.723734   1.000000   1.000000
   60      -19.723472    -19.721545   1.000000   1.000000
   61      -19.722157    -19.719459   1.000000   1.000000
   62      -19.697884    -19.695758   1.000000   1.000000
   63      -19.696474    -19.694628   1.000000   1.000000
   64      -19.692969    -19.690863   1.000000   1.000000
   65      -19.678710    -19.672456   1.000000   1.000000
   66      -19.674415    -19.669164   1.000000   1.000000
   67      -19.659662    -19.653552   1.000000   1.000000
   68      -19.642766    -19.635872   1.000000   1.000000
   69      -19.635702    -19.631550   1.000000   1.000000
   70      -19.629757    -19.622253   1.000000   1.000000
   71      -19.615847    -19.611877   1.000000   1.000000
   72      -19.609483    -19.603503   1.000000   1.000000
   73      -19.601823    -19.594753   1.000000   1.000000
   74      -19.576591    -19.567328   1.000000   1.000000
   75      -19.543632    -19.537905   1.000000   1.000000
   76      -19.521895    -19.513109   1.000000   1.000000
   77      -19.439474    -19.431557   1.000000   1.000000
   78      -19.418554    -19.411746   1.000000   1.000000
   79      -19.411874    -19.407441   1.000000   1.000000
   80      -19.391457    -19.384564   1.000000   1.000000
   81      -19.365558    -19.354375   1.000000   1.000000
   82      -19.343975    -19.339686   1.000000   1.000000
   83      -19.333673    -19.322577   1.000000   1.000000
   84      -19.323224    -19.316253   1.000000   1.000000
   85      -19.317307    -19.310918   1.000000   1.000000
   86      -19.307663    -19.292730   1.000000   1.000000
   87      -19.245967    -19.232925   1.000000   1.000000
   88      -19.186169    -19.170445   1.000000   1.000000
   89      -19.098137    -19.093567   1.000000   1.000000
   90      -19.059086    -19.053969   1.000000   1.000000
   91      -19.040008    -19.032742   1.000000   1.000000
   92      -19.028139    -19.022137   1.000000   1.000000
   93      -19.017560    -19.011134   1.000000   1.000000
   94      -19.002042    -18.995527   1.000000   1.000000
   95      -18.993020    -18.984204   1.000000   1.000000
   96      -18.953721    -18.942045   1.000000   1.000000
   97      -18.923178    -18.908308   1.000000   1.000000
   98      -18.897012    -18.885549   1.000000   1.000000
   99      -18.876825    -18.861750   1.000000   1.000000
  100      -18.852673    -18.842943   1.000000   1.000000
  101      -18.801002    -18.772872   1.000000   1.000000
  102      -18.708844    -18.694410   1.000000   1.000000
  103      -18.707402    -18.684545   1.000000   1.000000
  104      -18.693719    -18.677737   1.000000   1.000000
  105      -18.648971    -18.630428   1.000000   1.000000
  106      -18.614532    -18.583981   1.000000   1.000000
  107      -18.554376    -18.538701   1.000000   1.000000
  108      -18.533990    -18.516297   1.000000   1.000000
  109      -18.517800    -18.508204   1.000000   1.000000
  110      -18.514333    -18.506309   1.000000   1.000000
  111      -18.505749    -18.501998   1.000000   1.000000
  112      -18.504587    -18.498547   1.000000   1.000000
  113      -18.495625    -18.475145   1.000000   1.000000
  114      -18.490600    -18.459840   1.000000   1.000000
  115      -18.467289    -18.433634   1.000000   1.000000
  116      -18.407532    -18.379141   1.000000   1.000000
  117      -18.365170    -18.352047   1.000000   1.000000
  118      -18.350398    -18.314646   1.000000   1.000000
  119      -18.310636    -18.300118   1.000000   1.000000
  120      -18.281431    -18.236843   1.000000   1.000000
  121      -18.260653    -18.204978   1.000000   1.000000
  122      -18.237041    -18.161277   1.000000   1.000000
  123      -18.125860    -18.100077   1.000000   1.000000
  124      -18.115150    -18.077905   1.000000   1.000000
  125      -18.050972    -18.036780   1.000000   1.000000
  126      -18.028166    -17.996863   1.000000   1.000000
  127      -18.012867    -17.969877   1.000000   1.000000
  128      -17.995874    -17.933090   1.000000   1.000000
  129      -17.966735    -17.930037   1.000000   1.000000
  130      -17.898895    -17.876526   1.000000   1.000000
  131      -17.731120    -17.721164   1.000000   1.000000
  132      -17.636694    -17.598502   1.000000   1.000000
  133      -17.516880    -17.494970   1.000000   1.000000
  134      -17.489337    -17.475685   1.000000   1.000000
  135      -17.474079    -17.468588   1.000000   1.000000
  136      -17.469424    -17.466860   1.000000   1.000000
  137      -17.467776    -17.460518   1.000000   1.000000
  138      -17.462641    -17.455984   1.000000   1.000000
  139      -17.456850    -17.452660   1.000000   1.000000
  140      -17.451237    -17.446512   1.000000   1.000000
  141      -17.432905    -17.427243   1.000000   1.000000
  142      -17.428794    -17.418267   1.000000   1.000000
  143      -17.421960    -17.414666   1.000000   1.000000
  144      -17.417637    -17.405535   1.000000   1.000000
  145      -17.408213    -17.401624   1.000000   1.000000
  146      -17.399495    -17.388652   1.000000   1.000000
  147      -17.374107    -17.368466   1.000000   1.000000
  148      -17.368898    -17.363909   1.000000   1.000000
  149      -17.352765    -17.339822   1.000000   1.000000
  150      -17.340445    -17.332980   1.000000   1.000000
  151      -17.332962    -17.327647   1.000000   1.000000
  152      -17.325613    -17.315834   1.000000   1.000000
  153      -17.315298    -17.308239   1.000000   1.000000
  154      -17.306911    -17.303167   1.000000   1.000000
  155      -17.303266    -17.298839   1.000000   1.000000
  156      -17.301449    -17.297323   1.000000   1.000000
  157      -17.292479    -17.290111   1.000000   1.000000
  158      -17.291666    -17.282896   1.000000   1.000000
  159      -17.285321    -17.280005   1.000000   1.000000
  160      -17.281926    -17.274448   1.000000   1.000000
  161      -17.268561    -17.264912   1.000000   1.000000
  162      -17.267788    -17.261061   1.000000   1.000000
  163      -17.265299    -17.260876   1.000000   1.000000
  164      -17.261478    -17.258705   1.000000   1.000000
  165      -17.253453    -17.245148   1.000000   1.000000
  166      -17.246380    -17.238289   1.000000   1.000000
  167      -17.234180    -17.227445   1.000000   1.000000
  168      -17.225733    -17.213242   1.000000   1.000000
  169      -17.224536    -17.199750   1.000000   1.000000
  170      -17.202939    -17.185184   1.000000   1.000000
  171      -17.186953    -17.177363   1.000000   1.000000
  172      -17.177797    -17.174122   1.000000   1.000000
  173      -17.177345    -17.172590   1.000000   1.000000
  174      -17.168735    -17.164916   1.000000   1.000000
  175      -17.166971    -17.164304   1.000000   1.000000
  176      -17.165168    -17.158449   1.000000   1.000000
  177      -17.160823    -17.156646   1.000000   1.000000
  178      -17.156922    -17.152469   1.000000   1.000000
  179      -17.151093    -17.140026   1.000000   1.000000
  180      -17.105567    -17.090943   1.000000   1.000000
  181      -17.094642    -17.072552   1.000000   1.000000
  182      -17.066169    -17.062807   1.000000   1.000000
  183      -17.064951    -17.059621   1.000000   1.000000
  184      -17.042862    -17.027340   1.000000   1.000000
  185      -17.031696    -17.022470   1.000000   1.000000
  186      -17.027413    -17.002051   1.000000   1.000000
  187      -17.017528    -16.985772   1.000000   1.000000
  188      -17.001085    -16.978531   1.000000   1.000000
  189      -16.975576    -16.946814   1.000000   1.000000
  190      -16.915495    -16.862108   1.000000   1.000000
  191      -16.898232    -16.842550   1.000000   1.000000
  192      -16.854192    -16.794344   1.000000   1.000000
  193      -16.805957    -16.716742   1.000000   1.000000
  194      -16.784903    -16.710437   1.000000   1.000000
  195      -16.749253    -16.664708   1.000000   1.000000
  196      -16.715797    -16.640430   1.000000   1.000000
  197      -16.671747    -16.590587   1.000000   1.000000
  198      -16.609765    -16.527018   1.000000   1.000000
  199      -16.566686    -16.453120   1.000000   1.000000
  200      -16.552223    -16.427062   1.000000   1.000000
  201      -16.510610    -16.411826   1.000000   1.000000
  202      -16.466480    -16.387239   1.000000   1.000000
  203      -16.456120    -16.368631   1.000000   1.000000
  204      -16.443561    -16.326306   1.000000   1.000000
  205      -16.401756    -16.306965   1.000000   1.000000
  206      -16.368727    -16.286951   1.000000   1.000000
  207      -16.343542    -16.237425   1.000000   1.000000
  208      -16.326268    -16.212816   1.000000   1.000000
  209      -16.319875    -16.179554   1.000000   1.000000
  210      -16.309388    -16.137743   1.000000   1.000000
  211      -16.205531    -16.098007   1.000000   1.000000
  212      -16.180366    -16.063313   1.000000   1.000000
  213      -16.141958    -16.034465   1.000000   1.000000
  214      -16.115815    -16.012619   1.000000   1.000000
  215      -16.099825    -15.958065   1.000000   1.000000
  216      -16.061470    -15.934997   1.000000   1.000000
  217      -15.874139    -15.869437   1.000000   1.000000
  218      -15.859489    -15.826809   1.000000   1.000000
  219      -15.831802    -15.806077   1.000000   1.000000
  220      -15.825206    -15.784373   1.000000   1.000000
  221      -15.818529    -15.776659   1.000000   1.000000
  222      -15.812421    -15.748248   1.000000   1.000000
  223      -15.782759    -15.722743   1.000000   1.000000
  224      -15.760635    -15.713407   1.000000   1.000000
  225      -15.744769    -15.664863   1.000000   1.000000
  226      -15.689854    -15.600796   1.000000   1.000000
  227      -15.651051    -15.584877   1.000000   1.000000
  228      -15.621616    -15.556485   1.000000   1.000000
  229      -15.572019    -15.527646   1.000000   1.000000
  230      -15.549724    -15.498485   1.000000   1.000000
  231      -15.521024    -15.490217   1.000000   1.000000
  232      -15.504572    -15.466756   1.000000   1.000000
  233      -15.485076    -15.455163   1.000000   1.000000
  234      -15.463577    -15.418917   1.000000   1.000000
  235      -15.435159    -15.394047   1.000000   1.000000
  236      -15.375572    -15.340912   1.000000   1.000000
  237      -15.355412    -15.328795   1.000000   1.000000
  238      -15.332749    -15.304812   1.000000   1.000000
  239      -15.328444    -15.301047   1.000000   1.000000
  240      -15.318487    -15.273772   1.000000   1.000000
  241      -15.303181    -15.254696   1.000000   1.000000
  242      -15.275601    -15.225535   1.000000   1.000000
  243      -15.249423    -15.200704   1.000000   1.000000
  244      -15.239025    -15.186469   1.000000   1.000000
  245      -15.218072    -15.152135   1.000000   1.000000
  246      -15.163197    -15.093371   1.000000   1.000000
  247      -15.140469    -15.072954   1.000000   1.000000
  248      -15.125712    -15.070482   1.000000   1.000000
  249      -15.100057    -15.044333   1.000000   1.000000
  250      -15.048166    -14.990995   1.000000   1.000000
  251      -15.032717    -14.956798   1.000000   1.000000
  252      -15.002176    -14.949369   1.000000   1.000000
  253      -14.950826    -14.936889   1.000000   1.000000
  254      -14.917353    -14.897735   1.000000   1.000000
  255      -14.913555    -14.883916   1.000000   1.000000
  256      -14.905374    -14.879189   1.000000   1.000000
  257      -14.898877    -14.874103   1.000000   1.000000
  258      -14.886984    -14.845575   1.000000   1.000000
  259      -14.867726    -14.833635   1.000000   1.000000
  260      -14.839120    -14.802295   1.000000   1.000000
  261      -14.819517    -14.781564   1.000000   1.000000
  262      -14.810882    -14.762749   1.000000   1.000000
  263      -14.795270    -14.753513   1.000000   1.000000
  264      -14.794343    -14.735228   1.000000   1.000000
  265      -14.763422    -14.717624   1.000000   1.000000
  266      -14.744034    -14.696799   1.000000   1.000000
  267      -14.715075    -14.685949   1.000000   1.000000
  268      -14.708642    -14.665582   1.000000   1.000000
  269      -14.704586    -14.660268   1.000000   1.000000
  270      -14.693524    -14.629117   1.000000   1.000000
  271      -14.670595    -14.620310   1.000000   1.000000
  272      -14.636379    -14.568834   1.000000   1.000000
  273      -14.633886    -14.558889   1.000000   1.000000
  274      -14.526396    -14.493567   1.000000   1.000000
  275      -14.525070    -14.487430   1.000000   1.000000
  276      -14.508942    -14.468313   1.000000   1.000000
  277      -14.500485    -14.439213   1.000000   1.000000
  278      -14.473584    -14.393905   1.000000   1.000000
  279      -14.452033    -14.379637   1.000000   1.000000
  280      -14.420492    -14.319098   1.000000   1.000000
  281      -14.337719    -14.247029   1.000000   1.000000
  282      -14.268345    -14.228863   1.000000   1.000000
  283      -14.222199    -14.180616   1.000000   1.000000
  284      -14.067646    -14.027847   1.000000   1.000000
  285      -14.016909    -13.944188   1.000000   1.000000
  286      -13.981226    -13.876847   1.000000   1.000000
  287      -12.590284    -12.590209   1.000000   1.000000
  288       -6.022763     -5.985183   1.000000   1.000000
  289       -5.131015     -4.993196   1.000000   1.000000
  290       -4.997915     -4.954234   1.000000   1.000000
  291       -4.967189     -4.920338   1.000000   1.000000
  292       -4.949611     -4.907112   1.000000   1.000000
  293       -4.906404     -4.838636   1.000000   1.000000
  294       -4.819389     -4.806745   1.000000   1.000000
  295       -4.810185     -4.798136   1.000000   1.000000
  296       -4.799572     -4.791339   1.000000   1.000000
  297       -4.790328     -4.717574   1.000000   1.000000
  298       -4.777076     -4.655913   1.000000   1.000000
  299       -4.736288     -4.636672   1.000000   1.000000
  300       -4.686201     -4.471569   1.000000   1.000000
  301       -4.657455     -4.415859   1.000000   1.000000
  302       -4.470762     -4.402026   1.000000   1.000000
  303       -4.409754     -4.391796   1.000000   1.000000
  304       -4.405153     -4.368262   1.000000   1.000000
  305       -4.373577     -4.363417   1.000000   1.000000
  306       -4.367266     -4.343265   1.000000   1.000000
  307       -4.342624     -4.328045   1.000000   1.000000
  308       -4.326800     -4.315845   1.000000   1.000000
  309       -4.321380     -4.311405   1.000000   1.000000
  310       -4.315683     -4.298392   1.000000   1.000000
  311       -4.308563     -4.287864   1.000000   1.000000
  312       -4.298190     -4.271629   1.000000   1.000000
  313       -4.283580     -4.257797   1.000000   1.000000
  314       -4.268763     -4.253666   1.000000   1.000000
  315       -4.267452     -4.241747   1.000000   1.000000
  316       -4.247275     -4.234893   1.000000   1.000000
  317       -4.246067     -4.207259   1.000000   1.000000
  318       -4.219835     -4.186371   1.000000   1.000000
  319       -4.203547     -4.177521   1.000000   1.000000
  320       -4.179377     -4.154665   1.000000   1.000000
  321       -4.168524     -4.149213   1.000000   1.000000
  322       -4.165578     -4.134337   1.000000   1.000000
  323       -4.153321     -4.127856   1.000000   1.000000
  324       -4.138864     -4.107770   1.000000   1.000000
  325       -4.130964     -4.088469   1.000000   1.000000
  326       -4.118188     -4.075458   1.000000   1.000000
  327       -4.093087     -4.062523   1.000000   1.000000
  328       -4.087501     -4.056606   1.000000   1.000000
  329       -4.073062     -4.036341   1.000000   1.000000
  330       -4.062117     -4.023770   1.000000   1.000000
  331       -4.041450     -4.015463   1.000000   1.000000
  332       -4.035985     -4.003544   1.000000   1.000000
  333       -4.025735     -3.998597   1.000000   1.000000
  334       -4.017174     -3.992647   1.000000   1.000000
  335       -4.012790     -3.986097   1.000000   1.000000
  336       -4.000068     -3.979372   1.000000   1.000000
  337       -3.993767     -3.977054   1.000000   1.000000
  338       -3.987229     -3.967166   1.000000   1.000000
  339       -3.981097     -3.962563   1.000000   1.000000
  340       -3.970616     -3.958835   1.000000   1.000000
  341       -3.965989     -3.951870   1.000000   1.000000
  342       -3.956038     -3.945630   1.000000   1.000000
  343       -3.951973     -3.932169   1.000000   1.000000
  344       -3.945213     -3.914900   1.000000   1.000000
  345       -3.943920     -3.910124   1.000000   1.000000
  346       -3.934339     -3.901925   1.000000   1.000000
  347       -3.923487     -3.894579   1.000000   1.000000
  348       -3.919846     -3.889958   1.000000   1.000000
  349       -3.906312     -3.871777   1.000000   1.000000
  350       -3.902510     -3.863367   1.000000   1.000000
  351       -3.898275     -3.840139   1.000000   1.000000
  352       -3.887954     -3.839176   1.000000   1.000000
  353       -3.878941     -3.815849   1.000000   1.000000
  354       -3.863790     -3.789137   1.000000   1.000000
  355       -3.861556     -3.783706   1.000000   1.000000
  356       -3.819344     -3.775441   1.000000   1.000000
  357       -3.816498     -3.771847   1.000000   1.000000
  358       -3.811064     -3.755352   1.000000   1.000000
  359       -3.801156     -3.740366   1.000000   1.000000
  360       -3.782950     -3.722648   1.000000   1.000000
  361       -3.766425     -3.717872   1.000000   1.000000
  362       -3.747934     -3.698936   1.000000   1.000000
  363       -3.740859     -3.675700   1.000000   1.000000
  364       -3.730765     -3.660548   1.000000   1.000000
  365       -3.719164     -3.656183   1.000000   1.000000
  366       -3.709657     -3.634301   1.000000   1.000000
  367       -3.690807     -3.625846   1.000000   1.000000
  368       -3.682576     -3.609745   1.000000   1.000000
  369       -3.667462     -3.605698   1.000000   1.000000
  370       -3.660291     -3.587354   1.000000   1.000000
  371       -3.643416     -3.563475   1.000000   1.000000
  372       -3.633135     -3.550065   1.000000   1.000000
  373       -3.624011     -3.539488   1.000000   1.000000
  374       -3.617358     -3.512809   1.000000   1.000000
  375       -3.610518     -3.505784   1.000000   1.000000
  376       -3.600848     -3.498941   1.000000   1.000000
  377       -3.582856     -3.485527   1.000000   1.000000
  378       -3.547655     -3.468443   1.000000   1.000000
  379       -3.545227     -3.450839   1.000000   1.000000
  380       -3.538228     -3.438153   1.000000   1.000000
  381       -3.521291     -3.430893   1.000000   1.000000
  382       -3.515553     -3.428973   1.000000   1.000000
  383       -3.503390     -3.421008   1.000000   1.000000
  384       -3.490516     -3.414213   1.000000   1.000000
  385       -3.479041     -3.397306   1.000000   1.000000
  386       -3.463727     -3.389587   1.000000   1.000000
  387       -3.454012     -3.362852   1.000000   1.000000
  388       -3.435195     -3.357496   1.000000   1.000000
  389       -3.424912     -3.350805   1.000000   1.000000
  390       -3.414425     -3.344854   1.000000   1.000000
  391       -3.394662     -3.334265   1.000000   1.000000
  392       -3.388665     -3.327616   1.000000   1.000000
  393       -3.379555     -3.324020   1.000000   1.000000
  394       -3.359487     -3.305148   1.000000   1.000000
  395       -3.353729     -3.295955   1.000000   1.000000
  396       -3.342532     -3.295021   1.000000   1.000000
  397       -3.334682     -3.290267   1.000000   1.000000
  398       -3.328001     -3.270698   1.000000   1.000000
  399       -3.310879     -3.264039   1.000000   1.000000
  400       -3.303164     -3.254925   1.000000   1.000000
  401       -3.302047     -3.241119   1.000000   1.000000
  402       -3.286244     -3.216961   1.000000   1.000000
  403       -3.279108     -3.205647   1.000000   1.000000
  404       -3.271686     -3.193449   1.000000   1.000000
  405       -3.261599     -3.190512   1.000000   1.000000
  406       -3.249682     -3.182640   1.000000   1.000000
  407       -3.246278     -3.171595   1.000000   1.000000
  408       -3.233801     -3.147505   1.000000   1.000000
  409       -3.223936     -3.130417   1.000000   1.000000
  410       -3.215296     -3.128922   1.000000   1.000000
  411       -3.201865     -3.117689   1.000000   1.000000
  412       -3.187777     -3.102004   1.000000   1.000000
  413       -3.175908     -3.093522   1.000000   1.000000
  414       -3.167467     -3.083018   1.000000   1.000000
  415       -3.160034     -3.066799   1.000000   1.000000
  416       -3.152225     -3.061233   1.000000   1.000000
  417       -3.133081     -3.039148   1.000000   1.000000
  418       -3.114992     -3.030830   1.000000   1.000000
  419       -3.112076     -3.008219   1.000000   1.000000
  420       -3.096307     -3.004506   1.000000   1.000000
  421       -3.084235     -2.990770   1.000000   1.000000
  422       -3.072987     -2.982019   1.000000   1.000000
  423       -3.060367     -2.975363   1.000000   1.000000
  424       -3.043426     -2.971311   1.000000   1.000000
  425       -3.021536     -2.950962   1.000000   1.000000
  426       -3.015576     -2.933916   1.000000   1.000000
  427       -3.014286     -2.918401   1.000000   1.000000
  428       -3.006297     -2.905274   1.000000   1.000000
  429       -3.000394     -2.880517   1.000000   1.000000
  430       -2.978296     -2.872772   1.000000   1.000000
  431       -2.968733     -2.866750   1.000000   1.000000
  432       -2.938498     -2.803531   1.000000   1.000000
  433       -2.928395     -2.776618   1.000000   1.000000
  434       -2.912887     -2.766930   1.000000   1.000000
  435       -2.911127     -2.757722   1.000000   1.000000
  436       -2.906669     -2.746620   1.000000   1.000000
  437       -2.887687     -2.729038   1.000000   1.000000
  438       -2.875687     -2.723479   1.000000   1.000000
  439       -2.858916     -2.712592   1.000000   1.000000
  440       -2.829156     -2.699531   1.000000   1.000000
  441       -2.802924     -2.674171   1.000000   1.000000
  442       -2.788903     -2.662020   1.000000   1.000000
  443       -2.766617     -2.660662   1.000000   1.000000
  444       -2.753625     -2.654209   1.000000   1.000000
  445       -2.747312     -2.648716   1.000000   1.000000
  446       -2.731855     -2.614426   1.000000   1.000000
  447       -2.712522     -2.593853   1.000000   1.000000
  448       -2.690073     -2.560085   1.000000   1.000000
  449       -2.684488     -2.546706   1.000000   1.000000
  450       -2.670161     -2.530759   1.000000   1.000000
  451       -2.663288     -2.518331   1.000000   1.000000
  452       -2.652031     -2.492872   1.000000   1.000000
  453       -2.635374     -2.487987   1.000000   1.000000
  454       -2.630739     -2.481197   1.000000   1.000000
  455       -2.604245     -2.475776   1.000000   1.000000
  456       -2.583320     -2.468455   1.000000   1.000000
  457       -2.558203     -2.457612   1.000000   1.000000
  458       -2.536484     -2.454256   1.000000   1.000000
  459       -2.523929     -2.439508   1.000000   1.000000
  460       -2.515582     -2.430435   1.000000   1.000000
  461       -2.503517     -2.426379   1.000000   1.000000
  462       -2.497481     -2.419977   1.000000   1.000000
  463       -2.485906     -2.415656   1.000000   1.000000
  464       -2.478370     -2.410541   1.000000   1.000000
  465       -2.470133     -2.405030   1.000000   1.000000
  466       -2.465640     -2.395543   1.000000   1.000000
  467       -2.452910     -2.383580   1.000000   1.000000
  468       -2.446359     -2.381181   1.000000   1.000000
  469       -2.441805     -2.371343   1.000000   1.000000
  470       -2.431889     -2.364603   1.000000   1.000000
  471       -2.425767     -2.349988   1.000000   1.000000
  472       -2.420451     -2.336565   1.000000   1.000000
  473       -2.411749     -2.332778   1.000000   1.000000
  474       -2.403146     -2.317609   1.000000   1.000000
  475       -2.402577     -2.305494   1.000000   1.000000
  476       -2.395781     -2.292015   1.000000   1.000000
  477       -2.388911     -2.283039   1.000000   1.000000
  478       -2.382285     -2.271400   1.000000   1.000000
  479       -2.375064     -2.262778   1.000000   1.000000
  480       -2.358574     -2.250844   1.000000   1.000000
  481       -2.351830     -2.249441   1.000000   1.000000
  482       -2.345403     -2.246684   1.000000   1.000000
  483       -2.335598     -2.233417   1.000000   1.000000
  484       -2.316389     -2.219501   1.000000   1.000000
  485       -2.308955     -2.219463   1.000000   1.000000
  486       -2.305643     -2.210058   1.000000   1.000000
  487       -2.295765     -2.204964   1.000000   1.000000
  488       -2.285336     -2.198288   1.000000   1.000000
  489       -2.275017     -2.189025   1.000000   1.000000
  490       -2.268332     -2.180934   1.000000   1.000000
  491       -2.264512     -2.167272   1.000000   1.000000
  492       -2.250769     -2.158078   1.000000   1.000000
  493       -2.241389     -2.150077   1.000000   1.000000
  494       -2.237724     -2.135074   1.000000   1.000000
  495       -2.230809     -2.129151   1.000000   1.000000
  496       -2.222705     -2.122132   1.000000   1.000000
  497       -2.211278     -2.114470   1.000000   1.000000
  498       -2.202312     -2.102847   1.000000   1.000000
  499       -2.192975     -2.094241   1.000000   1.000000
  500       -2.183587     -2.086643   1.000000   1.000000
  501       -2.179694     -2.078794   1.000000   1.000000
  502       -2.172129     -2.074507   1.000000   1.000000
  503       -2.160693     -2.062495   1.000000   1.000000
  504       -2.151163     -2.050770   1.000000   1.000000
  505       -2.140494     -2.047937   1.000000   1.000000
  506       -2.124965     -2.036060   1.000000   1.000000
  507       -2.122292     -2.032470   1.000000   1.000000
  508       -2.107513     -2.024798   1.000000   1.000000
  509       -2.100101     -2.021911   1.000000   1.000000
  510       -2.092288     -2.011815   1.000000   1.000000
  511       -2.081998     -1.998487   1.000000   1.000000
  512       -2.072691     -1.995210   1.000000   1.000000