CeO2                                    
           1
    15.526200    0.000000    0.000000
    -7.763219   13.446001    0.000000
     0.000000    0.000000   22.923201
   Ce   O    Ni   C    H 
  48  94  10   1   4
Direct configuration=     1
   0.00003262  0.99411593  0.03036583
   0.33277065  0.15848317  0.17007032
   0.15711602  0.32188879  0.31099894
   0.99944056  0.24349002  0.03094548
   0.33107140  0.40970692  0.16738151
   0.16489739  0.07071148  0.31601505
   0.24941203  0.24309377  0.03011197
   0.08319508  0.41135470  0.17052376
   0.40997724  0.06092767  0.31025489
   0.25005051  0.99413315  0.02938500
   0.08356796  0.15939917  0.17113221
   0.40972444  0.32711289  0.30353014
   0.50117614  0.99439198  0.03000548
   0.83342931  0.16057719  0.17068536
   0.67832012  0.33103845  0.31028808
   0.50013955  0.24303676  0.02993571
   0.83443178  0.41204090  0.16927045
   0.66766635  0.07660238  0.31043175
   0.74979480  0.24338418  0.03048620
   0.58378250  0.40961895  0.16777365
   0.91503627  0.07447092  0.31048921
   0.75038392  0.99391965  0.03063701
   0.58282729  0.16063056  0.17143261
   0.91694747  0.32671474  0.31136620
   0.99971972  0.49296146  0.02924353
   0.33194006  0.66094042  0.16779472
   0.16764888  0.82623707  0.31166545
   0.00107610  0.74438076  0.02813422
   0.33349477  0.90944524  0.16783623
   0.16571827  0.58057755  0.31607970
   0.24998668  0.74362672  0.02819777
   0.08461105  0.91057316  0.16982227
   0.41003839  0.57912628  0.30324678
   0.24901473  0.49297877  0.02902440
   0.08452185  0.66079594  0.16899242
   0.41548011  0.82859805  0.31075444
   0.50026257  0.49344549  0.02890075
   0.83726330  0.66175968  0.16668453
   0.66868694  0.82975631  0.31164586
   0.50014622  0.74415294  0.02886036
   0.83322858  0.90854123  0.17029499
   0.67603054  0.58179913  0.30188728
   0.75093979  0.74459513  0.02872970
   0.58271043  0.90910912  0.17003039
   0.92583900  0.58205504  0.31155109
   0.75059680  0.49319336  0.02853201
   0.58363517  0.66045040  0.16717388
   0.92280454  0.83025601  0.31110589
   0.16656810  0.32710281  0.99467224
   0.00121594  0.99409057  0.13459043
   0.34219343  0.16558421  0.28179580
   0.41687106  0.32706815  0.99462021
   0.24962595  0.99309654  0.13240955
   0.08413835  0.16227479  0.27711718
   0.41723388  0.07789866  0.99463682
   0.24823997  0.24297527  0.13376728
   0.08540683  0.40896447  0.27794163
   0.16709083  0.07823103  0.99461655
   0.99808646  0.24244318  0.13559204
   0.32659647  0.40790085  0.27430677
   0.08273684  0.16051121  0.06614169
   0.41598733  0.32722114  0.20084987
   0.24154165  0.97533904  0.35077568
   0.33334265  0.16056564  0.06607327
   0.16447359  0.32613510  0.20534457
   0.98970723  0.98453144  0.34940214
   0.33321467  0.41009636  0.06530980
   0.17082755  0.07758450  0.20615264
   0.99839383  0.24240381  0.34765385
   0.08175857  0.40889700  0.06584025
   0.41523340  0.07502469  0.20339677
   0.24507800  0.25029907  0.36506820
   0.66667784  0.32669920  0.99404906
   0.50152717  0.99429526  0.13343836
   0.83630010  0.16148087  0.27236196
   0.91635766  0.32609454  0.99435422
   0.74996657  0.99437473  0.13501748
   0.58148608  0.16392240  0.28021016
   0.91621280  0.07681926  0.99517662
   0.75013571  0.24416267  0.13499732
   0.58088635  0.41543181  0.27968968
   0.66693652  0.07786811  0.99474482
   0.50063519  0.24309515  0.13385097
   0.83604075  0.41857884  0.27546666
   0.58379985  0.16073143  0.06616378
   0.91743772  0.33049811  0.20729067
   0.75555822  0.00267779  0.34599826
   0.83314872  0.16047944  0.06614066
   0.66741422  0.32969504  0.20472579
   0.50409034  0.98520627  0.34846771
   0.83344771  0.40968956  0.06502882
   0.66494376  0.07820398  0.20779674
   0.58379671  0.40935399  0.06546177
   0.91676001  0.07372046  0.20687269
   0.76006595  0.24246477  0.34724746
   0.16682770  0.82775498  0.99271142
   0.99948058  0.49415081  0.13304831
   0.33464736  0.66344327  0.27395751
   0.41717163  0.82724286  0.99336035
   0.24794994  0.49263714  0.13252504
   0.08266825  0.66206035  0.27516957
   0.41628098  0.57588799  0.99392473
   0.24934859  0.74311803  0.13176129
   0.07922279  0.90557541  0.27412318
   0.16593293  0.57508790  0.99369183
   0.00164090  0.74437206  0.13166882
   0.33261351  0.90454000  0.27116351
   0.08364987  0.66072615  0.06353285
   0.41677909  0.82611427  0.20290711
   0.25124461  0.48528933  0.36690469
   0.33306691  0.66063954  0.06383175
   0.16674234  0.82692828  0.20402019
   0.99182987  0.49369530  0.34960133
   0.33366242  0.90984765  0.06435425
   0.16575858  0.57677173  0.20385530
   0.99862340  0.74107927  0.34834435
   0.08335808  0.91093027  0.06410228
   0.41608316  0.57737238  0.19943503
   0.25742592  0.75395165  0.34996968
   0.66855517  0.82817223  0.99393612
   0.50210639  0.49446516  0.13247826
   0.83407047  0.65966180  0.27535396
   0.91658966  0.82791113  0.99331433
   0.75213138  0.49407627  0.13209996
   0.58171915  0.64775919  0.27625834
   0.91629634  0.57603115  0.99320910
   0.75083723  0.74275571  0.13215425
   0.58061512  0.90713964  0.27326242
   0.66630958  0.57557608  0.99397175
   0.50048623  0.74428650  0.13191571
   0.83497330  0.90471899  0.27496719
   0.58361902  0.66094153  0.06388677
   0.91690140  0.82457878  0.20446074
   0.73924447  0.49768106  0.36487355
   0.83452429  0.66116189  0.06360749
   0.66588534  0.82277094  0.20372357
   0.83389146  0.91067365  0.06614021
   0.67099095  0.57681870  0.20187526
   0.91906263  0.57998632  0.20493064
   0.58400972  0.91071249  0.06457392
   0.74822087  0.73298039  0.36166584
   0.49803284  0.74486276  0.36027358
   0.51669123  0.67444402  0.41715873
   0.66009439  0.65950639  0.42079044
   0.45906092  0.59380937  0.50260820
   0.49023625  0.50867857  0.41738147
   0.64662804  0.49063931  0.41822281
   0.48972688  0.37085678  0.45717825
   0.58234512  0.54070407  0.50026086
   0.32682261  0.48652750  0.42900515
   0.39177088  0.42304488  0.50802785
   0.32667004  0.33179540  0.42187588
   0.51725968  0.88568982  0.50126682
   0.43751211  0.83364970  0.49830182
   0.55541901  0.84648367  0.51566034
   0.53090659  0.94387922  0.53267940
   0.54513359  0.91869731  0.45857402
Direct configuration=     2
   0.00003090  0.99410882  0.03036061
   0.33272532  0.15839773  0.17003745
   0.15712138  0.32190440  0.31101959
   0.99943403  0.24348219  0.03094830
   0.33104159  0.40974574  0.16738822
   0.16495017  0.07078707  0.31601618
   0.24940361  0.24308898  0.03010566
   0.08318484  0.41133628  0.17054278
   0.41001822  0.06097114  0.31026274
   0.25004153  0.99411869  0.02938629
   0.08354198  0.15940922  0.17115198
   0.40983770  0.32710190  0.30345928
   0.50117932  0.99438541  0.03000441
   0.83344953  0.16057682  0.17070140
   0.67857821  0.33121213  0.31027340
   0.50014761  0.24304032  0.02993181
   0.83449614  0.41206846  0.16923562
   0.66769808  0.07661194  0.31045362
   0.74979952  0.24337587  0.03048333
   0.58382604  0.40968188  0.16772941
   0.91502262  0.07445224  0.31050887
   0.75039408  0.99392149  0.03063162
   0.58281199  0.16057527  0.17142257
   0.91700189  0.32670038  0.31138349
   0.99972171  0.49296022  0.02924409
   0.33195065  0.66094864  0.16780051
   0.16767560  0.82630394  0.31166459
   0.00107988  0.74438041  0.02813354
   0.33347208  0.90941977  0.16784750
   0.16571344  0.58068627  0.31605475
   0.24998643  0.74362276  0.02819651
   0.08461119  0.91055392  0.16985024
   0.41005812  0.57908394  0.30327256
   0.24901324  0.49298100  0.02902289
   0.08451862  0.66080491  0.16898254
   0.41547565  0.82858604  0.31076389
   0.50026797  0.49345495  0.02889522
   0.83727559  0.66177327  0.16669392
   0.66862278  0.82981548  0.31152100
   0.50014110  0.74414522  0.02885231
   0.83327424  0.90856644  0.17030985
   0.67600108  0.58180203  0.30193669
   0.75094448  0.74459533  0.02872325
   0.58269251  0.90912120  0.17002156
   0.92581999  0.58205943  0.31156662
   0.75060365  0.49319861  0.02852833
   0.58361385  0.66041150  0.16719034
   0.92282419  0.83028676  0.31111690
   0.16655368  0.32711854  0.99467080
   0.00120852  0.99410231  0.13457803
   0.34215461  0.16561706  0.28180352
   0.41688003  0.32705548  0.99462322
   0.24964312  0.99311396  0.13239782
   0.08418103  0.16235111  0.27709614
   0.41724459  0.07790724  0.99463262
   0.24824403  0.24296346  0.13378288
   0.08538134  0.40884220  0.27794680
   0.16708595  0.07823394  0.99462683
   0.99807796  0.24243877  0.13558826
   0.32655790  0.40782691  0.27430714
   0.08275671  0.16053176  0.06614305
   0.41599082  0.32724804  0.20092550
   0.24148011  0.97522643  0.35075762
   0.33336984  0.16054161  0.06608738
   0.16448122  0.32613251  0.20532513
   0.98971837  0.98457260  0.34938260
   0.33321505  0.41008478  0.06531823
   0.17083654  0.07759422  0.20614767
   0.99837549  0.24237853  0.34762548
   0.08179642  0.40889438  0.06582761
   0.41525715  0.07505204  0.20340057
   0.24507573  0.25039188  0.36514280
   0.66667601  0.32673071  0.99404257
   0.50151644  0.99428180  0.13342971
   0.83629921  0.16148320  0.27234920
   0.91636026  0.32608032  0.99434804
   0.74993001  0.99432073  0.13504227
   0.58144886  0.16380036  0.28017809
   0.91621067  0.07683911  0.99519425
   0.75012708  0.24415081  0.13501057
   0.58070111  0.41542619  0.27968317
   0.66693558  0.07787411  0.99474258
   0.50061057  0.24309407  0.13386741
   0.83603937  0.41857931  0.27545394
   0.58379340  0.16072967  0.06615559
   0.91741563  0.33050390  0.20728175
   0.75560685  0.00276404  0.34599111
   0.83314853  0.16048673  0.06614278
   0.66735438  0.32967290  0.20475711
   0.50410062  0.98521287  0.34846165
   0.83345134  0.40966463  0.06503207
   0.66492472  0.07819728  0.20778858
   0.58380244  0.40934932  0.06545432
   0.91676738  0.07372559  0.20683291
   0.76005799  0.24238597  0.34729751
   0.16682627  0.82777701  0.99271260
   0.99948581  0.49416426  0.13304446
   0.33477289  0.66355108  0.27394797
   0.41718367  0.82726762  0.99338081
   0.24798769  0.49263690  0.13251974
   0.08264914  0.66199244  0.27518374
   0.41625167  0.57587754  0.99394092
   0.24933781  0.74308729  0.13176357
   0.07914729  0.90547476  0.27410205
   0.16590818  0.57506480  0.99369010
   0.00165272  0.74437598  0.13167117
   0.33263983  0.90456079  0.27114570
   0.08363878  0.66070047  0.06354852
   0.41680845  0.82612945  0.20289934
   0.25129105  0.48536742  0.36690412
   0.33307554  0.66061436  0.06382516
   0.16675591  0.82691904  0.20400671
   0.99169606  0.49356176  0.34959579
   0.33364724  0.90984330  0.06434824
   0.16577663  0.57673198  0.20387138
   0.99863420  0.74105932  0.34835121
   0.08334837  0.91094078  0.06409469
   0.41602792  0.57732310  0.19941549
   0.25743075  0.75402857  0.34994715
   0.66854269  0.82817863  0.99393792
   0.50209780  0.49446239  0.13248444
   0.83408263  0.65964491  0.27533763
   0.91657157  0.82788357  0.99330291
   0.75213874  0.49405659  0.13210720
   0.58165402  0.64770319  0.27623962
   0.91630442  0.57604978  0.99320971
   0.75080790  0.74277955  0.13215920
   0.58065637  0.90710632  0.27330908
   0.66629688  0.57556119  0.99396293
   0.50051728  0.74430725  0.13192921
   0.83509656  0.90482455  0.27498998
   0.58363228  0.66095406  0.06389154
   0.91689996  0.82458924  0.20445244
   0.73913034  0.49763306  0.36492281
   0.83452381  0.66116646  0.06360475
   0.66590692  0.82275507  0.20378579
   0.83389729  0.91065038  0.06613880
   0.67097564  0.57679353  0.20186229
   0.91902756  0.57995761  0.20492163
   0.58401082  0.91072446  0.06457774
   0.74828406  0.73300453  0.36163814
   0.49796555  0.74479171  0.36026574
   0.51670749  0.67445958  0.41714898
   0.66008815  0.65950909  0.42078819
   0.45904346  0.59380488  0.50261025
   0.49023010  0.50868217  0.41736273
   0.64662392  0.49066416  0.41822830
   0.48971351  0.37086064  0.45717677
   0.58232338  0.54071010  0.50026189
   0.32680638  0.48654609  0.42899544
   0.39175326  0.42303693  0.50802848
   0.32669381  0.33179512  0.42187612
   0.51724701  0.88569502  0.50127944
   0.43751600  0.83364836  0.49829804
   0.55542578  0.84650056  0.51566267
   0.53088563  0.94386876  0.53268380
   0.54514224  0.91872844  0.45857531
Direct configuration=     3
   0.00003089  0.99410879  0.03036058
   0.33272507  0.15839727  0.17003727
   0.15712141  0.32190448  0.31101970
   0.99943400  0.24348215  0.03094831
   0.33104143  0.40974595  0.16738825
   0.16495045  0.07078748  0.31601619
   0.24940357  0.24308895  0.03010563
   0.08318479  0.41133618  0.17054288
   0.41001844  0.06097137  0.31026279
   0.25004148  0.99411861  0.02938630
   0.08354184  0.15940927  0.17115208
   0.40983830  0.32710184  0.30345890
   0.50117934  0.99438537  0.03000441
   0.83344964  0.16057682  0.17070149
   0.67857958  0.33121305  0.31027332
   0.50014765  0.24304034  0.02993179
   0.83449649  0.41206861  0.16923543
   0.66769825  0.07661199  0.31045374
   0.74979955  0.24337583  0.03048332
   0.58382627  0.40968221  0.16772918
   0.91502254  0.07445214  0.31050897
   0.75039413  0.99392150  0.03063159
   0.58281191  0.16057498  0.17142252
   0.91700218  0.32670030  0.31138358
   0.99972172  0.49296021  0.02924409
   0.33195071  0.66094869  0.16780054
   0.16767575  0.82630429  0.31166459
   0.00107990  0.74438041  0.02813354
   0.33347196  0.90941963  0.16784756
   0.16571341  0.58068684  0.31605462
   0.24998643  0.74362274  0.02819650
   0.08461119  0.91055382  0.16985039
   0.41005822  0.57908372  0.30327270
   0.24901324  0.49298101  0.02902288
   0.08451860  0.66080495  0.16898248
   0.41547563  0.82858598  0.31076394
   0.50026800  0.49345500  0.02889519
   0.83727566  0.66177334  0.16669397
   0.66862244  0.82981580  0.31152033
   0.50014107  0.74414518  0.02885227
   0.83327449  0.90856657  0.17030993
   0.67600092  0.58180204  0.30193695
   0.75094451  0.74459533  0.02872322
   0.58269242  0.90912126  0.17002151
   0.92581989  0.58205945  0.31156670
   0.75060368  0.49319864  0.02852831
   0.58361374  0.66041129  0.16719043
   0.92282430  0.83028692  0.31111696
   0.16655360  0.32711862  0.99467079
   0.00120848  0.99410237  0.13457796
   0.34215440  0.16561724  0.28180357
   0.41688008  0.32705542  0.99462324
   0.24964321  0.99311405  0.13239775
   0.08418126  0.16235152  0.27709602
   0.41724465  0.07790729  0.99463260
   0.24824405  0.24296339  0.13378296
   0.08538120  0.40884155  0.27794683
   0.16708593  0.07823396  0.99462689
   0.99807792  0.24243875  0.13558824
   0.32655770  0.40782652  0.27430714
   0.08275682  0.16053187  0.06614306
   0.41599084  0.32724818  0.20092590
   0.24147979  0.97522583  0.35075753
   0.33336998  0.16054148  0.06608745
   0.16448126  0.32613249  0.20532503
   0.98971843  0.98457282  0.34938249
   0.33321506  0.41008472  0.06531827
   0.17083658  0.07759427  0.20614764
   0.99837540  0.24237839  0.34762533
   0.08179663  0.40889437  0.06582754
   0.41525728  0.07505219  0.20340059
   0.24507572  0.25039238  0.36514319
   0.66667600  0.32673088  0.99404253
   0.50151639  0.99428173  0.13342967
   0.83629921  0.16148322  0.27234913
   0.91636028  0.32608024  0.99434801
   0.74992982  0.99432045  0.13504240
   0.58144866  0.16379971  0.28017792
   0.91621066  0.07683922  0.99519435
   0.75012703  0.24415075  0.13501064
   0.58070012  0.41542616  0.27968313
   0.66693558  0.07787414  0.99474256
   0.50061044  0.24309406  0.13386749
   0.83603937  0.41857931  0.27545387
   0.58379336  0.16072966  0.06615555
   0.91741552  0.33050393  0.20728170
   0.75560711  0.00276450  0.34599107
   0.83314853  0.16048677  0.06614279
   0.66735406  0.32967278  0.20475728
   0.50410067  0.98521290  0.34846162
   0.83345136  0.40966450  0.06503209
   0.66492462  0.07819724  0.20778854
   0.58380247  0.40934930  0.06545428
   0.91676742  0.07372562  0.20683270
   0.76005795  0.24238556  0.34729777
   0.16682627  0.82777713  0.99271260
   0.99948584  0.49416433  0.13304444
   0.33477356  0.66355166  0.27394792
   0.41718374  0.82726775  0.99338092
   0.24798789  0.49263690  0.13251971
   0.08264903  0.66199208  0.27518381
   0.41625151  0.57587748  0.99394101
   0.24933775  0.74308713  0.13176358
   0.07914689  0.90547423  0.27410194
   0.16590805  0.57506468  0.99369009
   0.00165278  0.74437600  0.13167118
   0.33263997  0.90456090  0.27114561
   0.08363872  0.66070033  0.06354860
   0.41680860  0.82612953  0.20289929
   0.25129129  0.48536783  0.36690412
   0.33307559  0.66061423  0.06382512
   0.16675599  0.82691899  0.20400664
   0.99169535  0.49356106  0.34959576
   0.33364716  0.90984328  0.06434820
   0.16577672  0.57673176  0.20387146
   0.99863426  0.74105921  0.34835125
   0.08334832  0.91094084  0.06409465
   0.41602763  0.57732284  0.19941538
   0.25743078  0.75402898  0.34994703
   0.66854262  0.82817867  0.99393793
   0.50209776  0.49446237  0.13248448
   0.83408270  0.65964482  0.27533754
   0.91657148  0.82788342  0.99330285
   0.75213878  0.49405649  0.13210724
   0.58165368  0.64770289  0.27623952
   0.91630447  0.57604987  0.99320971
   0.75080775  0.74277968  0.13215922
   0.58065659  0.90710615  0.27330933
   0.66629681  0.57556111  0.99396289
   0.50051744  0.74430736  0.13192928
   0.83509721  0.90482511  0.27499010
   0.58363235  0.66095413  0.06389157
   0.91689996  0.82458930  0.20445240
   0.73912973  0.49763281  0.36492307
   0.83452381  0.66116648  0.06360473
   0.66590703  0.82275498  0.20378612
   0.83389732  0.91065025  0.06613880
   0.67097556  0.57679340  0.20186222
   0.91902737  0.57995745  0.20492158
   0.58401082  0.91072452  0.06457776
   0.74828440  0.73300466  0.36163800
   0.49796519  0.74479133  0.36026570
   0.51670758  0.67445966  0.41714893
   0.66008812  0.65950910  0.42078818
   0.45904336  0.59380485  0.50261027
   0.49023007  0.50868218  0.41736263
   0.64662390  0.49066430  0.41822833
   0.48971344  0.37086066  0.45717676
   0.58232327  0.54071013  0.50026190
   0.32680630  0.48654618  0.42899539
   0.39175316  0.42303689  0.50802848
   0.32669393  0.33179512  0.42187613
   0.51724694  0.88569505  0.50127951
   0.43751602  0.83364835  0.49829802
   0.55542582  0.84650065  0.51566268
   0.53088552  0.94386871  0.53268382
   0.54514228  0.91872861  0.45857531
Direct configuration=     4
   0.00003087  0.99410871  0.03036053
   0.33272459  0.15839637  0.17003692
   0.15712147  0.32190465  0.31101992
   0.99943393  0.24348207  0.03094834
   0.33104111  0.40974636  0.16738833
   0.16495101  0.07078828  0.31601620
   0.24940348  0.24308890  0.03010556
   0.08318468  0.41133599  0.17054308
   0.41001887  0.06097184  0.31026287
   0.25004138  0.99411846  0.02938631
   0.08354156  0.15940938  0.17115229
   0.40983950  0.32710172  0.30345815
   0.50117937  0.99438530  0.03000440
   0.83344985  0.16057681  0.17070166
   0.67858232  0.33121489  0.31027316
   0.50014773  0.24304038  0.02993175
   0.83449717  0.41206890  0.16923506
   0.66769859  0.07661209  0.31045397
   0.74979960  0.24337574  0.03048329
   0.58382673  0.40968288  0.16772871
   0.91502240  0.07445194  0.31050918
   0.75039424  0.99392152  0.03063154
   0.58281175  0.16057439  0.17142241
   0.91700276  0.32670015  0.31138376
   0.99972174  0.49296020  0.02924410
   0.33195082  0.66094877  0.16780060
   0.16767603  0.82630500  0.31166458
   0.00107994  0.74438041  0.02813353
   0.33347172  0.90941936  0.16784768
   0.16571336  0.58068800  0.31605436
   0.24998642  0.74362269  0.02819649
   0.08461120  0.91055362  0.16985069
   0.41005843  0.57908327  0.30327297
   0.24901322  0.49298104  0.02902286
   0.08451857  0.66080505  0.16898238
   0.41547558  0.82858585  0.31076404
   0.50026805  0.49345510  0.02889514
   0.83727579  0.66177348  0.16669407
   0.66862176  0.82981643  0.31151901
   0.50014102  0.74414510  0.02885219
   0.83327497  0.90856684  0.17031009
   0.67600061  0.58180207  0.30193747
   0.75094456  0.74459534  0.02872315
   0.58269223  0.90912139  0.17002142
   0.92581969  0.58205950  0.31156686
   0.75060376  0.49319869  0.02852827
   0.58361351  0.66041088  0.16719061
   0.92282450  0.83028725  0.31111708
   0.16655345  0.32711879  0.99467078
   0.00120840  0.99410250  0.13457783
   0.34215399  0.16561758  0.28180365
   0.41688017  0.32705528  0.99462327
   0.24964339  0.99311423  0.13239763
   0.08418171  0.16235233  0.27709580
   0.41724476  0.07790738  0.99463256
   0.24824409  0.24296327  0.13378313
   0.08538093  0.40884025  0.27794689
   0.16708587  0.07823399  0.99462700
   0.99807783  0.24243870  0.13558820
   0.32655729  0.40782574  0.27430714
   0.08275703  0.16053209  0.06614307
   0.41599087  0.32724846  0.20092670
   0.24147913  0.97522464  0.35075734
   0.33337027  0.16054122  0.06608760
   0.16448134  0.32613247  0.20532482
   0.98971855  0.98457325  0.34938228
   0.33321506  0.41008459  0.06531836
   0.17083668  0.07759438  0.20614759
   0.99837520  0.24237812  0.34762503
   0.08179703  0.40889434  0.06582740
   0.41525753  0.07505248  0.20340063
   0.24507570  0.25039336  0.36514398
   0.66667599  0.32673121  0.99404246
   0.50151627  0.99428159  0.13342957
   0.83629920  0.16148324  0.27234899
   0.91636030  0.32608009  0.99434794
   0.74992943  0.99431987  0.13504266
   0.58144827  0.16379842  0.28017758
   0.91621064  0.07683943  0.99519453
   0.75012694  0.24415062  0.13501078
   0.58069816  0.41542610  0.27968306
   0.66693557  0.07787420  0.99474254
   0.50061017  0.24309405  0.13386767
   0.83603935  0.41857932  0.27545374
   0.58379329  0.16072965  0.06615546
   0.91741528  0.33050399  0.20728161
   0.75560763  0.00276541  0.34599100
   0.83314852  0.16048685  0.06614281
   0.66735343  0.32967255  0.20475761
   0.50410078  0.98521297  0.34846155
   0.83345139  0.40966424  0.06503212
   0.66492442  0.07819717  0.20778845
   0.58380254  0.40934925  0.06545421
   0.91676750  0.07372567  0.20683228
   0.76005787  0.24238472  0.34729831
   0.16682625  0.82777736  0.99271262
   0.99948589  0.49416447  0.13304440
   0.33477489  0.66355280  0.27394782
   0.41718386  0.82726802  0.99338114
   0.24798829  0.49263689  0.13251966
   0.08264883  0.66199136  0.27518396
   0.41625120  0.57587737  0.99394118
   0.24933764  0.74308680  0.13176361
   0.07914609  0.90547316  0.27410172
   0.16590779  0.57506443  0.99369007
   0.00165290  0.74437604  0.13167120
   0.33264025  0.90456112  0.27114542
   0.08363860  0.66070006  0.06354877
   0.41680891  0.82612969  0.20289921
   0.25129179  0.48536866  0.36690411
   0.33307568  0.66061396  0.06382505
   0.16675613  0.82691889  0.20400650
   0.99169393  0.49355964  0.34959570
   0.33364700  0.90984323  0.06434814
   0.16577691  0.57673134  0.20387163
   0.99863437  0.74105900  0.34835132
   0.08334821  0.91094095  0.06409457
   0.41602705  0.57732232  0.19941518
   0.25743083  0.75402980  0.34994679
   0.66854249  0.82817873  0.99393795
   0.50209767  0.49446234  0.13248454
   0.83408283  0.65964464  0.27533737
   0.91657129  0.82788313  0.99330273
   0.75213886  0.49405628  0.13210732
   0.58165299  0.64770230  0.27623933
   0.91630455  0.57605007  0.99320972
   0.75080744  0.74277993  0.13215927
   0.58065702  0.90710579  0.27330983
   0.66629668  0.57556095  0.99396279
   0.50051777  0.74430759  0.13192943
   0.83509852  0.90482623  0.27499034
   0.58363249  0.66095426  0.06389162
   0.91689994  0.82458941  0.20445231
   0.73912852  0.49763230  0.36492359
   0.83452381  0.66116653  0.06360470
   0.66590726  0.82275482  0.20378678
   0.83389739  0.91065001  0.06613878
   0.67097539  0.57679313  0.20186208
   0.91902700  0.57995715  0.20492149
   0.58401083  0.91072465  0.06457780
   0.74828507  0.73300492  0.36163770
   0.49796448  0.74479058  0.36026562
   0.51670775  0.67445983  0.41714882
   0.66008805  0.65950913  0.42078816
   0.45904318  0.59380481  0.50261029
   0.49023000  0.50868222  0.41736243
   0.64662385  0.49066456  0.41822839
   0.48971330  0.37086070  0.45717675
   0.58232304  0.54071019  0.50026191
   0.32680612  0.48654638  0.42899529
   0.39175298  0.42303680  0.50802849
   0.32669419  0.33179511  0.42187613
   0.51724681  0.88569510  0.50127964
   0.43751606  0.83364834  0.49829798
   0.55542589  0.84650083  0.51566271
   0.53088529  0.94386859  0.53268387
   0.54514237  0.91872894  0.45857533
Direct configuration=     5
   0.00003084  0.99410856  0.03036042
   0.33272363  0.15839455  0.17003623
   0.15712158  0.32190498  0.31102036
   0.99943379  0.24348190  0.03094840
   0.33104048  0.40974718  0.16738847
   0.16495213  0.07078988  0.31601622
   0.24940330  0.24308880  0.03010543
   0.08318446  0.41133560  0.17054348
   0.41001974  0.06097276  0.31026304
   0.25004119  0.99411815  0.02938634
   0.08354101  0.15940959  0.17115271
   0.40984191  0.32710149  0.30345665
   0.50117944  0.99438516  0.03000438
   0.83345028  0.16057681  0.17070200
   0.67858780  0.33121858  0.31027285
   0.50014790  0.24304045  0.02993167
   0.83449853  0.41206949  0.16923432
   0.66769926  0.07661229  0.31045443
   0.74979970  0.24337556  0.03048323
   0.58382766  0.40968422  0.16772777
   0.91502211  0.07445155  0.31050960
   0.75039445  0.99392156  0.03063142
   0.58281142  0.16057322  0.17142220
   0.91700391  0.32669984  0.31138413
   0.99972178  0.49296017  0.02924411
   0.33195105  0.66094895  0.16780072
   0.16767660  0.82630642  0.31166456
   0.00108002  0.74438040  0.02813352
   0.33347124  0.90941882  0.16784792
   0.16571326  0.58069030  0.31605383
   0.24998642  0.74362261  0.02819646
   0.08461120  0.91055321  0.16985128
   0.41005885  0.57908237  0.30327352
   0.24901319  0.49298108  0.02902283
   0.08451850  0.66080524  0.16898217
   0.41547548  0.82858560  0.31076424
   0.50026817  0.49345531  0.02889502
   0.83727605  0.66177377  0.16669427
   0.66862040  0.82981768  0.31151636
   0.50014091  0.74414494  0.02885202
   0.83327594  0.90856737  0.17031041
   0.67599998  0.58180213  0.30193852
   0.75094466  0.74459534  0.02872301
   0.58269185  0.90912165  0.17002123
   0.92581929  0.58205959  0.31156719
   0.75060390  0.49319881  0.02852820
   0.58361306  0.66041005  0.16719095
   0.92282492  0.83028790  0.31111731
   0.16655314  0.32711912  0.99467074
   0.00120824  0.99410275  0.13457757
   0.34215317  0.16561828  0.28180381
   0.41688036  0.32705501  0.99462333
   0.24964376  0.99311460  0.13239738
   0.08418262  0.16235395  0.27709535
   0.41724499  0.07790756  0.99463247
   0.24824418  0.24296302  0.13378346
   0.08538039  0.40883766  0.27794700
   0.16708577  0.07823405  0.99462722
   0.99807765  0.24243861  0.13558812
   0.32655647  0.40782417  0.27430715
   0.08275745  0.16053252  0.06614310
   0.41599095  0.32724903  0.20092831
   0.24147783  0.97522225  0.35075695
   0.33337085  0.16054071  0.06608790
   0.16448151  0.32613241  0.20532441
   0.98971878  0.98457413  0.34938187
   0.33321507  0.41008435  0.06531854
   0.17083687  0.07759458  0.20614748
   0.99837481  0.24237759  0.34762443
   0.08179783  0.40889429  0.06582714
   0.41525803  0.07505306  0.20340071
   0.24507565  0.25039533  0.36514557
   0.66667595  0.32673188  0.99404233
   0.50151605  0.99428130  0.13342939
   0.83629918  0.16148329  0.27234872
   0.91636036  0.32607979  0.99434781
   0.74992865  0.99431873  0.13504319
   0.58144748  0.16379583  0.28017690
   0.91621059  0.07683985  0.99519491
   0.75012676  0.24415037  0.13501106
   0.58069423  0.41542598  0.27968293
   0.66693555  0.07787433  0.99474249
   0.50060965  0.24309403  0.13386802
   0.83603932  0.41857933  0.27545347
   0.58379316  0.16072961  0.06615529
   0.91741481  0.33050411  0.20728142
   0.75560866  0.00276724  0.34599085
   0.83314852  0.16048700  0.06614285
   0.66735216  0.32967208  0.20475827
   0.50410100  0.98521311  0.34846143
   0.83345147  0.40966371  0.06503219
   0.66492402  0.07819703  0.20778828
   0.58380266  0.40934915  0.06545405
   0.91676765  0.07372578  0.20683143
   0.76005770  0.24238305  0.34729937
   0.16682622  0.82777783  0.99271264
   0.99948600  0.49416475  0.13304431
   0.33477755  0.66355509  0.27394762
   0.41718412  0.82726854  0.99338157
   0.24798909  0.49263689  0.13251955
   0.08264843  0.66198991  0.27518426
   0.41625058  0.57587715  0.99394152
   0.24933741  0.74308615  0.13176366
   0.07914448  0.90547102  0.27410127
   0.16590726  0.57506394  0.99369004
   0.00165315  0.74437612  0.13167125
   0.33264081  0.90456156  0.27114504
   0.08363836  0.66069951  0.06354910
   0.41680954  0.82613001  0.20289905
   0.25129277  0.48537032  0.36690410
   0.33307586  0.66061343  0.06382491
   0.16675642  0.82691870  0.20400621
   0.99169109  0.49355680  0.34959558
   0.33364668  0.90984314  0.06434801
   0.16577730  0.57673050  0.20387197
   0.99863460  0.74105858  0.34835146
   0.08334801  0.91094117  0.06409441
   0.41602587  0.57732127  0.19941476
   0.25743093  0.75403143  0.34994632
   0.66854222  0.82817887  0.99393799
   0.50209749  0.49446228  0.13248467
   0.83408308  0.65964428  0.27533702
   0.91657090  0.82788254  0.99330249
   0.75213902  0.49405586  0.13210747
   0.58165160  0.64770111  0.27623893
   0.91630472  0.57605047  0.99320973
   0.75080681  0.74278043  0.13215938
   0.58065790  0.90710508  0.27331082
   0.66629641  0.57556064  0.99396261
   0.50051843  0.74430803  0.13192971
   0.83510114  0.90482847  0.27499082
   0.58363277  0.66095453  0.06389172
   0.91689991  0.82458963  0.20445213
   0.73912610  0.49763128  0.36492464
   0.83452380  0.66116663  0.06360464
   0.66590772  0.82275448  0.20378810
   0.83389751  0.91064951  0.06613875
   0.67097507  0.57679260  0.20186181
   0.91902626  0.57995654  0.20492129
   0.58401086  0.91072490  0.06457788
   0.74828641  0.73300543  0.36163711
   0.49796305  0.74478907  0.36026545
   0.51670809  0.67446016  0.41714862
   0.66008792  0.65950919  0.42078811
   0.45904281  0.59380471  0.50261033
   0.49022987  0.50868230  0.41736203
   0.64662377  0.49066509  0.41822850
   0.48971302  0.37086078  0.45717671
   0.58232258  0.54071032  0.50026193
   0.32680578  0.48654678  0.42899508
   0.39175260  0.42303663  0.50802851
   0.32669469  0.33179511  0.42187613