 157 157   0   0
  0.3048133E+02  0.1552620E-08  0.1552619E-08  0.2292320E-08  0.0000000E+00
  1.000000000000000E-004
  CAR 
 CeO2                                    
      3.05205144    -36.83362870  301     -0.23438028      1.00000000
    -36.834  0.0000E+00  0.0000E+00  0.0000E+00  0.0000E+00
    -36.701  0.0000E+00  0.0000E+00  0.0000E+00  0.0000E+00
    -36.568  0.0000E+00  0.0000E+00  0.0000E+00  0.0000E+00
    -36.435  0.0000E+00  0.0000E+00  0.0000E+00  0.0000E+00
    -36.302  0.0000E+00  0.0000E+00  0.0000E+00  0.0000E+00
    -36.169  0.0000E+00  0.0000E+00  0.0000E+00  0.0000E+00
    -36.036  0.0000E+00  0.0000E+00  0.0000E+00  0.0000E+00
    -35.903  0.0000E+00  0.0000E+00  0.0000E+00  0.0000E+00
    -35.770  0.0000E+00  0.0000E+00  0.0000E+00  0.0000E+00
    -35.637  0.0000E+00  0.0000E+00  0.0000E+00  0.0000E+00
    -35.504  0.5150E-12  0.1901E-11  0.6847E-13  0.2527E-12
    -35.371  0.6536E-07  0.1697E-06  0.8690E-08  0.2256E-07
    -35.238  0.2896E-03  0.5188E-03  0.3851E-04  0.6899E-04
    -35.105  0.6078E-01  0.7408E-01  0.8119E-02  0.9918E-02
    -34.972  0.1189E+01  0.1168E+01  0.1662E+00  0.1652E+00
    -34.839  0.5343E+01  0.5281E+01  0.8765E+00  0.8673E+00
    -34.706  0.9039E+01  0.9064E+01  0.2078E+01  0.2072E+01
    -34.573  0.3370E+01  0.3405E+01  0.2526E+01  0.2525E+01
    -34.440  0.2663E+00  0.2751E+00  0.2562E+01  0.2562E+01
    -34.308  0.5896E-02  0.6508E-02  0.2562E+01  0.2562E+01
    -34.175  0.8437E-05  0.9994E-05  0.2562E+01  0.2562E+01
    -34.042  0.1083E-07  0.5445E-09  0.2563E+01  0.2562E+01
    -33.909  0.7694E-04  0.9394E-15  0.2563E+01  0.2562E+01
    -33.776  0.2049E-01  0.5219E-16  0.2565E+01  0.2562E+01
    -33.643  0.2803E+00  0.5232E-10  0.2603E+01  0.2563E+01
    -33.510  0.7183E+00  0.1885E-05  0.2698E+01  0.2563E+01
    -33.377  0.1352E+01  0.2293E-02  0.2878E+01  0.2563E+01
    -33.244  0.7626E+00  0.1138E+00  0.2979E+01  0.2578E+01
    -33.111  0.1533E+00  0.4686E+00  0.2999E+01  0.2640E+01
    -32.978  0.3962E-02  0.1052E+01  0.3000E+01  0.2780E+01
    -32.845  0.4566E-05  0.1190E+01  0.3000E+01  0.2938E+01
    -32.712  0.1802E-09  0.4231E+00  0.3000E+01  0.2995E+01
    -32.579  0.2088E-15  0.4078E-01  0.3000E+01  0.3000E+01
    -32.446  0.0000E+00  0.2688E-03  0.3000E+01  0.3000E+01
    -32.313  0.0000E+00  0.6699E-07  0.3000E+01  0.3000E+01
    -32.180  0.0000E+00  0.5470E-12  0.3000E+01  0.3000E+01
    -32.047  0.0000E+00  0.0000E+00  0.3000E+01  0.3000E+01
    -31.914  0.0000E+00  0.0000E+00  0.3000E+01  0.3000E+01
    -31.781  0.0000E+00  0.0000E+00  0.3000E+01  0.3000E+01
    -31.648  0.0000E+00  0.0000E+00  0.3000E+01  0.3000E+01
    -31.516  0.0000E+00  0.0000E+00  0.3000E+01  0.3000E+01
    -31.383  0.0000E+00  0.0000E+00  0.3000E+01  0.3000E+01
    -31.250  0.0000E+00  0.0000E+00  0.3000E+01  0.3000E+01
    -31.117  0.0000E+00  0.0000E+00  0.3000E+01  0.3000E+01
    -30.984  0.0000E+00  0.0000E+00  0.3000E+01  0.3000E+01
    -30.851  0.0000E+00  0.0000E+00  0.3000E+01  0.3000E+01
    -30.718  0.0000E+00  0.0000E+00  0.3000E+01  0.3000E+01
    -30.585  0.0000E+00  0.0000E+00  0.3000E+01  0.3000E+01
    -30.452  0.0000E+00  0.0000E+00  0.3000E+01  0.3000E+01
    -30.319  0.0000E+00  0.0000E+00  0.3000E+01  0.3000E+01
    -30.186  0.0000E+00  0.0000E+00  0.3000E+01  0.3000E+01
    -30.053  0.0000E+00  0.0000E+00  0.3000E+01  0.3000E+01
    -29.920  0.0000E+00  0.0000E+00  0.3000E+01  0.3000E+01
    -29.787  0.0000E+00  0.0000E+00  0.3000E+01  0.3000E+01
    -29.654  0.0000E+00  0.0000E+00  0.3000E+01  0.3000E+01
    -29.521  0.0000E+00  0.0000E+00  0.3000E+01  0.3000E+01
    -29.388  0.0000E+00  0.0000E+00  0.3000E+01  0.3000E+01
    -29.255  0.0000E+00  0.0000E+00  0.3000E+01  0.3000E+01
    -29.122  0.0000E+00  0.0000E+00  0.3000E+01  0.3000E+01
    -28.989  0.0000E+00  0.0000E+00  0.3000E+01  0.3000E+01
    -28.856  0.0000E+00  0.0000E+00  0.3000E+01  0.3000E+01
    -28.724  0.0000E+00  0.0000E+00  0.3000E+01  0.3000E+01
    -28.591  0.0000E+00  0.0000E+00  0.3000E+01  0.3000E+01
    -28.458  0.0000E+00  0.0000E+00  0.3000E+01  0.3000E+01
    -28.325  0.0000E+00  0.0000E+00  0.3000E+01  0.3000E+01
    -28.192  0.0000E+00  0.0000E+00  0.3000E+01  0.3000E+01
    -28.059  0.0000E+00  0.0000E+00  0.3000E+01  0.3000E+01
    -27.926  0.0000E+00  0.0000E+00  0.3000E+01  0.3000E+01
    -27.793  0.0000E+00  0.0000E+00  0.3000E+01  0.3000E+01
    -27.660  0.0000E+00  0.0000E+00  0.3000E+01  0.3000E+01
    -27.527  0.0000E+00  0.0000E+00  0.3000E+01  0.3000E+01
    -27.394  0.0000E+00  0.0000E+00  0.3000E+01  0.3000E+01
    -27.261  0.0000E+00  0.0000E+00  0.3000E+01  0.3000E+01
    -27.128  0.0000E+00  0.0000E+00  0.3000E+01  0.3000E+01
    -26.995  0.0000E+00  0.0000E+00  0.3000E+01  0.3000E+01
    -26.862  0.0000E+00  0.0000E+00  0.3000E+01  0.3000E+01
    -26.729  0.0000E+00  0.0000E+00  0.3000E+01  0.3000E+01
    -26.596  0.0000E+00  0.0000E+00  0.3000E+01  0.3000E+01
    -26.463  0.0000E+00  0.0000E+00  0.3000E+01  0.3000E+01
    -26.330  0.0000E+00  0.0000E+00  0.3000E+01  0.3000E+01
    -26.197  0.0000E+00  0.0000E+00  0.3000E+01  0.3000E+01
    -26.064  0.0000E+00  0.0000E+00  0.3000E+01  0.3000E+01
    -25.932  0.0000E+00  0.0000E+00  0.3000E+01  0.3000E+01
    -25.799  0.0000E+00  0.0000E+00  0.3000E+01  0.3000E+01
    -25.666  0.0000E+00  0.0000E+00  0.3000E+01  0.3000E+01
    -25.533  0.0000E+00  0.0000E+00  0.3000E+01  0.3000E+01
    -25.400  0.0000E+00  0.0000E+00  0.3000E+01  0.3000E+01
    -25.267  0.0000E+00  0.0000E+00  0.3000E+01  0.3000E+01
    -25.134  0.0000E+00  0.0000E+00  0.3000E+01  0.3000E+01
    -25.001  0.0000E+00  0.0000E+00  0.3000E+01  0.3000E+01
    -24.868  0.0000E+00  0.0000E+00  0.3000E+01  0.3000E+01
    -24.735  0.0000E+00  0.0000E+00  0.3000E+01  0.3000E+01
    -24.602  0.0000E+00  0.0000E+00  0.3000E+01  0.3000E+01
    -24.469  0.0000E+00  0.0000E+00  0.3000E+01  0.3000E+01
    -24.336  0.0000E+00  0.0000E+00  0.3000E+01  0.3000E+01
    -24.203  0.0000E+00  0.0000E+00  0.3000E+01  0.3000E+01
    -24.070  0.0000E+00  0.0000E+00  0.3000E+01  0.3000E+01
    -23.937  0.0000E+00  0.0000E+00  0.3000E+01  0.3000E+01
    -23.804  0.0000E+00  0.0000E+00  0.3000E+01  0.3000E+01
    -23.671  0.0000E+00  0.0000E+00  0.3000E+01  0.3000E+01
    -23.538  0.0000E+00  0.0000E+00  0.3000E+01  0.3000E+01
    -23.405  0.0000E+00  0.0000E+00  0.3000E+01  0.3000E+01
    -23.272  0.0000E+00  0.0000E+00  0.3000E+01  0.3000E+01
    -23.140  0.0000E+00  0.0000E+00  0.3000E+01  0.3000E+01
    -23.007  0.0000E+00  0.0000E+00  0.3000E+01  0.3000E+01
    -22.874  0.0000E+00  0.0000E+00  0.3000E+01  0.3000E+01
    -22.741  0.0000E+00  0.0000E+00  0.3000E+01  0.3000E+01
    -22.608  0.0000E+00  0.0000E+00  0.3000E+01  0.3000E+01
    -22.475  0.0000E+00  0.0000E+00  0.3000E+01  0.3000E+01
    -22.342  0.0000E+00  0.0000E+00  0.3000E+01  0.3000E+01
    -22.209  0.0000E+00  0.0000E+00  0.3000E+01  0.3000E+01
    -22.076  0.0000E+00  0.0000E+00  0.3000E+01  0.3000E+01
    -21.943  0.0000E+00  0.0000E+00  0.3000E+01  0.3000E+01
    -21.810  0.0000E+00  0.0000E+00  0.3000E+01  0.3000E+01
    -21.677  0.0000E+00  0.0000E+00  0.3000E+01  0.3000E+01
    -21.544  0.0000E+00  0.0000E+00  0.3000E+01  0.3000E+01
    -21.411  0.0000E+00  0.0000E+00  0.3000E+01  0.3000E+01
    -21.278  0.0000E+00  0.0000E+00  0.3000E+01  0.3000E+01
    -21.145  0.0000E+00  0.0000E+00  0.3000E+01  0.3000E+01
    -21.012  0.0000E+00  0.0000E+00  0.3000E+01  0.3000E+01
    -20.879  0.0000E+00  0.0000E+00  0.3000E+01  0.3000E+01
    -20.746  0.0000E+00  0.0000E+00  0.3000E+01  0.3000E+01
    -20.613  0.8872E-15  0.7307E-15  0.3000E+01  0.3000E+01
    -20.480  0.5466E-09  0.4730E-09  0.3000E+01  0.3000E+01
    -20.348  0.1158E-04  0.1037E-04  0.3000E+01  0.3000E+01
    -20.215  0.9297E-02  0.8622E-02  0.3001E+01  0.3001E+01
    -20.082  0.3527E+00  0.3399E+00  0.3048E+01  0.3046E+01
    -19.949  0.9444E+00  0.9434E+00  0.3174E+01  0.3172E+01
    -19.816  0.8039E+00  0.7810E+00  0.3281E+01  0.3276E+01
    -19.683  0.2883E+01  0.2781E+01  0.3664E+01  0.3645E+01
    -19.550  0.5020E+01  0.4951E+01  0.4331E+01  0.4304E+01
    -19.417  0.3133E+01  0.3203E+01  0.4748E+01  0.4730E+01
    -19.284  0.2831E+01  0.2754E+01  0.5124E+01  0.5096E+01
    -19.151  0.2266E+01  0.2353E+01  0.5426E+01  0.5409E+01
    -19.018  0.1481E+01  0.1484E+01  0.5622E+01  0.5606E+01
    -18.885  0.2578E+01  0.2495E+01  0.5965E+01  0.5938E+01
    -18.752  0.2076E+01  0.2060E+01  0.6241E+01  0.6211E+01
    -18.619  0.1629E+01  0.1576E+01  0.6458E+01  0.6421E+01
    -18.486  0.2114E+01  0.1961E+01  0.6739E+01  0.6682E+01
    -18.353  0.3165E+01  0.3130E+01  0.7160E+01  0.7098E+01
    -18.220  0.2268E+01  0.2206E+01  0.7461E+01  0.7391E+01
    -18.087  0.1472E+01  0.1495E+01  0.7657E+01  0.7590E+01
    -17.954  0.1638E+01  0.1590E+01  0.7875E+01  0.7801E+01
    -17.821  0.1503E+01  0.1745E+01  0.8075E+01  0.8033E+01
    -17.689  0.5232E+00  0.7776E+00  0.8144E+01  0.8137E+01
    -17.556  0.5683E+00  0.4803E+00  0.8220E+01  0.8201E+01
    -17.423  0.1959E+01  0.1767E+01  0.8480E+01  0.8436E+01
    -17.290  0.5930E+01  0.5866E+01  0.9268E+01  0.9215E+01
    -17.157  0.7688E+01  0.7614E+01  0.1029E+02  0.1023E+02
    -17.024  0.6524E+01  0.6556E+01  0.1116E+02  0.1110E+02
    -16.891  0.4239E+01  0.4121E+01  0.1172E+02  0.1165E+02
    -16.758  0.2244E+01  0.1960E+01  0.1202E+02  0.1191E+02
    -16.625  0.1770E+01  0.1544E+01  0.1226E+02  0.1211E+02
    -16.492  0.1587E+01  0.1522E+01  0.1247E+02  0.1232E+02
    -16.359  0.2185E+01  0.1529E+01  0.1276E+02  0.1252E+02
    -16.226  0.2289E+01  0.2247E+01  0.1306E+02  0.1282E+02
    -16.093  0.1680E+01  0.1939E+01  0.1328E+02  0.1308E+02
    -15.960  0.1363E+01  0.1737E+01  0.1347E+02  0.1331E+02
    -15.827  0.7768E+00  0.1524E+01  0.1357E+02  0.1351E+02
    -15.694  0.2477E+01  0.1930E+01  0.1390E+02  0.1377E+02
    -15.561  0.2129E+01  0.2255E+01  0.1418E+02  0.1407E+02
    -15.428  0.2062E+01  0.2124E+01  0.1446E+02  0.1435E+02
    -15.295  0.2532E+01  0.2589E+01  0.1479E+02  0.1469E+02
    -15.162  0.2798E+01  0.2653E+01  0.1516E+02  0.1504E+02
    -15.029  0.2301E+01  0.2206E+01  0.1547E+02  0.1534E+02
    -14.897  0.2290E+01  0.2400E+01  0.1577E+02  0.1566E+02
    -14.764  0.3408E+01  0.3172E+01  0.1623E+02  0.1608E+02
    -14.631  0.3362E+01  0.3380E+01  0.1667E+02  0.1653E+02
    -14.498  0.2888E+01  0.3184E+01  0.1706E+02  0.1695E+02
    -14.365  0.2474E+01  0.2338E+01  0.1739E+02  0.1726E+02
    -14.232  0.1144E+01  0.1550E+01  0.1754E+02  0.1747E+02
    -14.099  0.7709E+00  0.1014E+01  0.1764E+02  0.1760E+02
    -13.966  0.7751E+00  0.7862E+00  0.1775E+02  0.1771E+02
    -13.833  0.8410E+00  0.7960E+00  0.1786E+02  0.1781E+02
    -13.700  0.1348E+00  0.4318E+00  0.1787E+02  0.1787E+02
    -13.567  0.1380E-02  0.3073E-01  0.1787E+02  0.1787E+02
    -13.434  0.6170E-06  0.1328E-03  0.1787E+02  0.1787E+02
    -13.301  0.9859E-11  0.2243E-07  0.1788E+02  0.1787E+02
    -13.168  0.0000E+00  0.1255E-12  0.1788E+02  0.1788E+02
    -13.035  0.0000E+00  0.0000E+00  0.1788E+02  0.1788E+02
    -12.902  0.0000E+00  0.0000E+00  0.1788E+02  0.1788E+02
    -12.769  0.1131E-12  0.6315E-14  0.1788E+02  0.1788E+02
    -12.636  0.2064E-07  0.2326E-08  0.1788E+02  0.1788E+02
    -12.503  0.1223E-03  0.2751E-04  0.1788E+02  0.1788E+02
    -12.370  0.2617E-01  0.1140E-01  0.1788E+02  0.1788E+02
    -12.237  0.2625E+00  0.2064E+00  0.1791E+02  0.1790E+02
    -12.105  0.1743E+00  0.2349E+00  0.1794E+02  0.1794E+02
    -11.972  0.7030E-02  0.1727E-01  0.1794E+02  0.1794E+02
    -11.839  0.1199E-04  0.5730E-04  0.1794E+02  0.1794E+02
    -11.706  0.7073E-09  0.6757E-08  0.1794E+02  0.1794E+02
    -11.573  0.1357E-14  0.2568E-13  0.1794E+02  0.1794E+02
    -11.440  0.0000E+00  0.0000E+00  0.1794E+02  0.1794E+02
    -11.307  0.0000E+00  0.0000E+00  0.1794E+02  0.1794E+02
    -11.174  0.0000E+00  0.0000E+00  0.1794E+02  0.1794E+02
    -11.041  0.0000E+00  0.0000E+00  0.1794E+02  0.1794E+02
    -10.908  0.0000E+00  0.0000E+00  0.1794E+02  0.1794E+02
    -10.775  0.0000E+00  0.0000E+00  0.1794E+02  0.1794E+02
    -10.642  0.0000E+00  0.0000E+00  0.1794E+02  0.1794E+02
    -10.509  0.0000E+00  0.0000E+00  0.1794E+02  0.1794E+02
    -10.376  0.0000E+00  0.0000E+00  0.1794E+02  0.1794E+02
    -10.243  0.0000E+00  0.0000E+00  0.1794E+02  0.1794E+02
    -10.110  0.0000E+00  0.0000E+00  0.1794E+02  0.1794E+02
     -9.977  0.0000E+00  0.0000E+00  0.1794E+02  0.1794E+02
     -9.844  0.0000E+00  0.0000E+00  0.1794E+02  0.1794E+02
     -9.711  0.0000E+00  0.0000E+00  0.1794E+02  0.1794E+02
     -9.578  0.0000E+00  0.0000E+00  0.1794E+02  0.1794E+02
     -9.445  0.0000E+00  0.0000E+00  0.1794E+02  0.1794E+02
     -9.313  0.0000E+00  0.0000E+00  0.1794E+02  0.1794E+02
     -9.180  0.0000E+00  0.0000E+00  0.1794E+02  0.1794E+02
     -9.047  0.0000E+00  0.0000E+00  0.1794E+02  0.1794E+02
     -8.914  0.0000E+00  0.0000E+00  0.1794E+02  0.1794E+02
     -8.781  0.0000E+00  0.0000E+00  0.1794E+02  0.1794E+02
     -8.648  0.0000E+00  0.0000E+00  0.1794E+02  0.1794E+02
     -8.515  0.0000E+00  0.0000E+00  0.1794E+02  0.1794E+02
     -8.382  0.0000E+00  0.0000E+00  0.1794E+02  0.1794E+02
     -8.249  0.0000E+00  0.0000E+00  0.1794E+02  0.1794E+02
     -8.116  0.0000E+00  0.0000E+00  0.1794E+02  0.1794E+02
     -7.983  0.0000E+00  0.0000E+00  0.1794E+02  0.1794E+02
     -7.850  0.0000E+00  0.0000E+00  0.1794E+02  0.1794E+02
     -7.717  0.0000E+00  0.0000E+00  0.1794E+02  0.1794E+02
     -7.584  0.0000E+00  0.0000E+00  0.1794E+02  0.1794E+02
     -7.451  0.0000E+00  0.0000E+00  0.1794E+02  0.1794E+02
     -7.318  0.1424E-11  0.1044E-14  0.1794E+02  0.1794E+02
     -7.185  0.1361E-06  0.5869E-09  0.1794E+02  0.1794E+02
     -7.052  0.4282E-03  0.1052E-04  0.1794E+02  0.1794E+02
     -6.919  0.5031E-01  0.6506E-02  0.1794E+02  0.1794E+02
     -6.786  0.2970E+00  0.1694E+00  0.1798E+02  0.1796E+02
     -6.653  0.1196E+00  0.2663E+00  0.1800E+02  0.1800E+02
     -6.521  0.2733E-02  0.2782E-01  0.1800E+02  0.1800E+02
     -6.388  0.2508E-05  0.1370E-03  0.1800E+02  0.1800E+02
     -6.255  0.7788E-10  0.2443E-07  0.1800E+02  0.1800E+02
     -6.122  0.1090E-08  0.1419E-12  0.1800E+02  0.1800E+02
     -5.989  0.1624E-04  0.2585E-09  0.1800E+02  0.1800E+02
     -5.856  0.8399E-02  0.5898E-05  0.1800E+02  0.1800E+02
     -5.723  0.1859E+00  0.4603E-02  0.1803E+02  0.1800E+02
     -5.590  0.2535E+00  0.1483E+00  0.1806E+02  0.1802E+02
     -5.457  0.8990E-01  0.3066E+00  0.1807E+02  0.1806E+02
     -5.324  0.5424E+00  0.4562E+00  0.1814E+02  0.1812E+02
     -5.191  0.3298E+00  0.4604E+00  0.1819E+02  0.1818E+02
     -5.058  0.2244E+00  0.3453E-01  0.1822E+02  0.1819E+02
     -4.925  0.3801E+00  0.6695E-01  0.1827E+02  0.1820E+02
     -4.792  0.1022E+01  0.8506E+00  0.1840E+02  0.1831E+02
     -4.659  0.1947E+01  0.1557E+01  0.1866E+02  0.1852E+02
     -4.526  0.7578E+00  0.9241E+00  0.1876E+02  0.1864E+02
     -4.393  0.1133E+01  0.1197E+01  0.1891E+02  0.1880E+02
     -4.260  0.3312E+01  0.3251E+01  0.1935E+02  0.1923E+02
     -4.127  0.4994E+01  0.4785E+01  0.2002E+02  0.1987E+02
     -3.994  0.5432E+01  0.4822E+01  0.2074E+02  0.2051E+02
     -3.861  0.7003E+01  0.6459E+01  0.2167E+02  0.2137E+02
     -3.729  0.6053E+01  0.5878E+01  0.2248E+02  0.2215E+02
     -3.596  0.5066E+01  0.4750E+01  0.2315E+02  0.2278E+02
     -3.463  0.5258E+01  0.4644E+01  0.2385E+02  0.2340E+02
     -3.330  0.5156E+01  0.5383E+01  0.2453E+02  0.2411E+02
     -3.197  0.6187E+01  0.6002E+01  0.2536E+02  0.2491E+02
     -3.064  0.5601E+01  0.5465E+01  0.2610E+02  0.2564E+02
     -2.931  0.5244E+01  0.5132E+01  0.2680E+02  0.2632E+02
     -2.798  0.4431E+01  0.4040E+01  0.2739E+02  0.2686E+02
     -2.665  0.3936E+01  0.3750E+01  0.2791E+02  0.2736E+02
     -2.532  0.4286E+01  0.4340E+01  0.2848E+02  0.2793E+02
     -2.399  0.5229E+01  0.5037E+01  0.2918E+02  0.2860E+02
     -2.266  0.7600E+01  0.7220E+01  0.3019E+02  0.2956E+02
     -2.133  0.7217E+01  0.7014E+01  0.3115E+02  0.3049E+02
     -2.000  0.7477E+01  0.7101E+01  0.3214E+02  0.3144E+02
     -1.867  0.8986E+01  0.8387E+01  0.3333E+02  0.3255E+02
     -1.734  0.9939E+01  0.9718E+01  0.3466E+02  0.3385E+02
     -1.601  0.7526E+01  0.7596E+01  0.3566E+02  0.3486E+02
     -1.468  0.6945E+01  0.6770E+01  0.3658E+02  0.3576E+02
     -1.335  0.7234E+01  0.6781E+01  0.3754E+02  0.3666E+02
     -1.202  0.5628E+01  0.4733E+01  0.3829E+02  0.3729E+02
     -1.069  0.2557E+01  0.1266E+01  0.3863E+02  0.3745E+02
     -0.937  0.1948E+01  0.9768E+00  0.3889E+02  0.3758E+02
     -0.804  0.1673E+01  0.1127E+01  0.3911E+02  0.3773E+02
     -0.671  0.1321E+01  0.1279E+01  0.3929E+02  0.3790E+02
     -0.538  0.7644E+00  0.1577E+01  0.3939E+02  0.3811E+02
     -0.405  0.4604E+00  0.1440E+01  0.3945E+02  0.3831E+02
     -0.272  0.3298E+00  0.1190E+01  0.3949E+02  0.3846E+02
     -0.139  0.4363E-01  0.1091E+01  0.3950E+02  0.3861E+02
     -0.006  0.3196E-03  0.1102E+01  0.3950E+02  0.3876E+02
      0.127  0.7647E-06  0.1013E+01  0.3950E+02  0.3889E+02
      0.260  0.1205E-02  0.7263E+00  0.3950E+02  0.3899E+02
      0.393  0.8304E-01  0.4346E+00  0.3951E+02  0.3904E+02
      0.526  0.3204E+00  0.1401E+00  0.3955E+02  0.3906E+02
      0.659  0.6898E+00  0.5371E+00  0.3965E+02  0.3913E+02
      0.792  0.5089E+01  0.4927E+01  0.4032E+02  0.3979E+02
      0.925  0.1740E+02  0.1711E+02  0.4264E+02  0.4206E+02
      1.058  0.2837E+02  0.2833E+02  0.4641E+02  0.4583E+02
      1.191  0.2975E+02  0.3102E+02  0.5036E+02  0.4995E+02
      1.324  0.1166E+02  0.1432E+02  0.5191E+02  0.5186E+02
      1.457  0.6606E+00  0.1061E+01  0.5200E+02  0.5200E+02
      1.590  0.2572E-02  0.5583E-02  0.5200E+02  0.5200E+02
      1.723  0.4327E-06  0.1285E-05  0.5200E+02  0.5200E+02
      1.855  0.2573E-11  0.1059E-10  0.5200E+02  0.5200E+02
      1.988  0.0000E+00  0.0000E+00  0.5200E+02  0.5200E+02
      2.121  0.0000E+00  0.0000E+00  0.5200E+02  0.5200E+02
      2.254  0.0000E+00  0.0000E+00  0.5200E+02  0.5200E+02
      2.387  0.0000E+00  0.0000E+00  0.5200E+02  0.5200E+02
      2.520  0.0000E+00  0.0000E+00  0.5200E+02  0.5200E+02
      2.653  0.0000E+00  0.0000E+00  0.5200E+02  0.5200E+02
      2.786  0.0000E+00  0.0000E+00  0.5200E+02  0.5200E+02
      2.919  0.0000E+00  0.0000E+00  0.5200E+02  0.5200E+02
      3.052  0.0000E+00  0.0000E+00  0.5200E+02  0.5200E+02
