  157  157   16    2
  0.3048133E+02  0.1552620E-08  0.1552619E-08  0.2292320E-08  0.0000000E+00
  1.000000000000000E-004
  CAR 
 CeO2                                    
   1248      1    832
 
  0.0000000E+00  0.0000000E+00  0.0000000E+00  0.1000000E+01
    1      -35.007540    -35.020643   1.000000   1.000000
    2      -34.953276    -34.954595   1.000000   1.000000
    3      -34.948706    -34.944265   1.000000   1.000000
    4      -34.933504    -34.931191   1.000000   1.000000
    5      -34.923575    -34.916369   1.000000   1.000000
    6      -34.898965    -34.898171   1.000000   1.000000
    7      -34.887412    -34.886366   1.000000   1.000000
    8      -34.878836    -34.877739   1.000000   1.000000
    9      -34.863712    -34.862717   1.000000   1.000000
   10      -34.861843    -34.860658   1.000000   1.000000
   11      -34.852043    -34.850879   1.000000   1.000000
   12      -34.835533    -34.834396   1.000000   1.000000
   13      -34.828658    -34.827820   1.000000   1.000000
   14      -34.824175    -34.822359   1.000000   1.000000
   15      -34.818633    -34.818463   1.000000   1.000000
   16      -34.813683    -34.812753   1.000000   1.000000
   17      -34.804418    -34.802984   1.000000   1.000000
   18      -34.798159    -34.796403   1.000000   1.000000
   19      -34.795085    -34.793653   1.000000   1.000000
   20      -34.789695    -34.788655   1.000000   1.000000
   21      -34.785734    -34.784399   1.000000   1.000000
   22      -34.781233    -34.780676   1.000000   1.000000
   23      -34.777231    -34.776866   1.000000   1.000000
   24      -34.774558    -34.774250   1.000000   1.000000
   25      -34.772258    -34.771995   1.000000   1.000000
   26      -34.765738    -34.765445   1.000000   1.000000
   27      -34.762135    -34.761800   1.000000   1.000000
   28      -34.758336    -34.758188   1.000000   1.000000
   29      -34.751524    -34.750064   1.000000   1.000000
   30      -34.744151    -34.743633   1.000000   1.000000
   31      -34.740304    -34.738399   1.000000   1.000000
   32      -34.734006    -34.732750   1.000000   1.000000
   33      -34.729214    -34.727794   1.000000   1.000000
   34      -34.727820    -34.725427   1.000000   1.000000
   35      -34.723470    -34.723448   1.000000   1.000000
   36      -34.719096    -34.719067   1.000000   1.000000
   37      -34.715718    -34.715690   1.000000   1.000000
   38      -34.712496    -34.711920   1.000000   1.000000
   39      -34.711129    -34.710800   1.000000   1.000000
   40      -34.710069    -34.709937   1.000000   1.000000
   41      -34.599770    -34.597002   1.000000   1.000000
   42      -33.654637    -33.194123   1.000000   1.000000
   43      -33.535484    -33.065442   1.000000   1.000000
   44      -33.466774    -33.008495   1.000000   1.000000
   45      -33.436225    -32.966059   1.000000   1.000000
   46      -33.402776    -32.929034   1.000000   1.000000
   47      -33.400279    -32.927808   1.000000   1.000000
   48      -33.280050    -32.809170   1.000000   1.000000
   49      -20.056853    -20.055329   1.000000   1.000000
   50      -20.030732    -20.027947   1.000000   1.000000
   51      -20.014184    -20.011778   1.000000   1.000000
   52      -19.868019    -19.865259   1.000000   1.000000
   53      -19.792949    -19.787138   1.000000   1.000000
   54      -19.722744    -19.718318   1.000000   1.000000
   55      -19.706898    -19.701515   1.000000   1.000000
   56      -19.693882    -19.691226   1.000000   1.000000
   57      -19.687584    -19.685289   1.000000   1.000000
   58      -19.681432    -19.680270   1.000000   1.000000
   59      -19.680996    -19.677436   1.000000   1.000000
   60      -19.668547    -19.665718   1.000000   1.000000
   61      -19.664325    -19.659900   1.000000   1.000000
   62      -19.642137    -19.639359   1.000000   1.000000
   63      -19.640238    -19.638160   1.000000   1.000000
   64      -19.629394    -19.624053   1.000000   1.000000
   65      -19.615983    -19.613831   1.000000   1.000000
   66      -19.611463    -19.603238   1.000000   1.000000
   67      -19.599173    -19.593239   1.000000   1.000000
   68      -19.580672    -19.572815   1.000000   1.000000
   69      -19.569409    -19.562131   1.000000   1.000000
   70      -19.549974    -19.542627   1.000000   1.000000
   71      -19.546184    -19.538746   1.000000   1.000000
   72      -19.529143    -19.522185   1.000000   1.000000
   73      -19.523936    -19.516781   1.000000   1.000000
   74      -19.506471    -19.494752   1.000000   1.000000
   75      -19.462350    -19.457837   1.000000   1.000000
   76      -19.447940    -19.439672   1.000000   1.000000
   77      -19.377328    -19.369196   1.000000   1.000000
   78      -19.353787    -19.347667   1.000000   1.000000
   79      -19.342794    -19.335350   1.000000   1.000000
   80      -19.332749    -19.326883   1.000000   1.000000
   81      -19.301826    -19.289501   1.000000   1.000000
   82      -19.284262    -19.277550   1.000000   1.000000
   83      -19.278641    -19.265279   1.000000   1.000000
   84      -19.261656    -19.252449   1.000000   1.000000
   85      -19.257880    -19.248764   1.000000   1.000000
   86      -19.251392    -19.241828   1.000000   1.000000
   87      -19.178521    -19.165060   1.000000   1.000000
   88      -19.123614    -19.105950   1.000000   1.000000
   89      -19.047595    -19.041457   1.000000   1.000000
   90      -18.991340    -18.983548   1.000000   1.000000
   91      -18.979764    -18.973665   1.000000   1.000000
   92      -18.967172    -18.961056   1.000000   1.000000
   93      -18.958450    -18.950424   1.000000   1.000000
   94      -18.937294    -18.929057   1.000000   1.000000
   95      -18.933807    -18.926780   1.000000   1.000000
   96      -18.886517    -18.872111   1.000000   1.000000
   97      -18.857997    -18.842885   1.000000   1.000000
   98      -18.838277    -18.825608   1.000000   1.000000
   99      -18.812825    -18.795599   1.000000   1.000000
  100      -18.782632    -18.771381   1.000000   1.000000
  101      -18.736479    -18.703630   1.000000   1.000000
  102      -18.657303    -18.632251   1.000000   1.000000
  103      -18.639768    -18.624155   1.000000   1.000000
  104      -18.629142    -18.614732   1.000000   1.000000
  105      -18.580227    -18.560349   1.000000   1.000000
  106      -18.546565    -18.515226   1.000000   1.000000
  107      -18.487459    -18.455945   1.000000   1.000000
  108      -18.473455    -18.438262   1.000000   1.000000
  109      -18.447145    -18.427249   1.000000   1.000000
  110      -18.432115    -18.422424   1.000000   1.000000
  111      -18.424867    -18.413367   1.000000   1.000000
  112      -18.419398    -18.410254   1.000000   1.000000
  113      -18.403899    -18.390290   1.000000   1.000000
  114      -18.396395    -18.387275   1.000000   1.000000
  115      -18.391049    -18.359838   1.000000   1.000000
  116      -18.339831    -18.310895   1.000000   1.000000
  117      -18.310330    -18.286844   1.000000   1.000000
  118      -18.293653    -18.250582   1.000000   1.000000
  119      -18.238757    -18.227727   1.000000   1.000000
  120      -18.216693    -18.170113   1.000000   1.000000
  121      -18.192195    -18.132091   1.000000   1.000000
  122      -18.174172    -18.088053   1.000000   1.000000
  123      -18.063675    -18.022681   1.000000   1.000000
  124      -18.034299    -18.006329   1.000000   1.000000
  125      -17.980580    -17.961284   1.000000   1.000000
  126      -17.971997    -17.923871   1.000000   1.000000
  127      -17.940089    -17.891302   1.000000   1.000000
  128      -17.921193    -17.868232   1.000000   1.000000
  129      -17.887782    -17.851849   1.000000   1.000000
  130      -17.823828    -17.800425   1.000000   1.000000
  131      -17.654463    -17.642902   1.000000   1.000000
  132      -17.543609    -17.504667   1.000000   1.000000
  133      -17.456755    -17.422611   1.000000   1.000000
  134      -17.422321    -17.404879   1.000000   1.000000
  135      -17.400788    -17.387137   1.000000   1.000000
  136      -17.389456    -17.384510   1.000000   1.000000
  137      -17.385965    -17.375562   1.000000   1.000000
  138      -17.370865    -17.367853   1.000000   1.000000
  139      -17.364676    -17.360540   1.000000   1.000000
  140      -17.358963    -17.352222   1.000000   1.000000
  141      -17.352965    -17.349398   1.000000   1.000000
  142      -17.350500    -17.345381   1.000000   1.000000
  143      -17.346183    -17.338188   1.000000   1.000000
  144      -17.340849    -17.330376   1.000000   1.000000
  145      -17.333257    -17.326459   1.000000   1.000000
  146      -17.327474    -17.317065   1.000000   1.000000
  147      -17.296491    -17.290248   1.000000   1.000000
  148      -17.283937    -17.276292   1.000000   1.000000
  149      -17.278475    -17.269510   1.000000   1.000000
  150      -17.267700    -17.260402   1.000000   1.000000
  151      -17.261397    -17.253781   1.000000   1.000000
  152      -17.253759    -17.247977   1.000000   1.000000
  153      -17.246875    -17.244060   1.000000   1.000000
  154      -17.240879    -17.233404   1.000000   1.000000
  155      -17.234068    -17.231161   1.000000   1.000000
  156      -17.233088    -17.225567   1.000000   1.000000
  157      -17.225469    -17.221484   1.000000   1.000000
  158      -17.219156    -17.206612   1.000000   1.000000
  159      -17.210634    -17.203422   1.000000   1.000000
  160      -17.204084    -17.199038   1.000000   1.000000
  161      -17.187421    -17.178684   1.000000   1.000000
  162      -17.182859    -17.174720   1.000000   1.000000
  163      -17.173258    -17.166135   1.000000   1.000000
  164      -17.164961    -17.155359   1.000000   1.000000
  165      -17.157572    -17.153433   1.000000   1.000000
  166      -17.154355    -17.152151   1.000000   1.000000
  167      -17.149114    -17.147323   1.000000   1.000000
  168      -17.148184    -17.138794   1.000000   1.000000
  169      -17.143143    -17.115281   1.000000   1.000000
  170      -17.121769    -17.101746   1.000000   1.000000
  171      -17.111525    -17.098517   1.000000   1.000000
  172      -17.102228    -17.089486   1.000000   1.000000
  173      -17.100205    -17.087953   1.000000   1.000000
  174      -17.060312    -17.057228   1.000000   1.000000
  175      -17.059038    -17.056029   1.000000   1.000000
  176      -17.054422    -17.053852   1.000000   1.000000
  177      -17.051444    -17.050432   1.000000   1.000000
  178      -17.050606    -17.049665   1.000000   1.000000
  179      -17.046351    -17.042025   1.000000   1.000000
  180      -17.040591    -17.032934   1.000000   1.000000
  181      -17.027767    -16.991810   1.000000   1.000000
  182      -16.976253    -16.964196   1.000000   1.000000
  183      -16.972817    -16.952485   1.000000   1.000000
  184      -16.952418    -16.945251   1.000000   1.000000
  185      -16.946618    -16.943645   1.000000   1.000000
  186      -16.943546    -16.923564   1.000000   1.000000
  187      -16.936564    -16.909046   1.000000   1.000000
  188      -16.931053    -16.901161   1.000000   1.000000
  189      -16.898605    -16.866654   1.000000   1.000000
  190      -16.842575    -16.784695   1.000000   1.000000
  191      -16.826391    -16.768101   1.000000   1.000000
  192      -16.788157    -16.724854   1.000000   1.000000
  193      -16.736167    -16.644601   1.000000   1.000000
  194      -16.722599    -16.638415   1.000000   1.000000
  195      -16.695211    -16.603343   1.000000   1.000000
  196      -16.660938    -16.577127   1.000000   1.000000
  197      -16.610205    -16.528437   1.000000   1.000000
  198      -16.565673    -16.476447   1.000000   1.000000
  199      -16.507014    -16.384535   1.000000   1.000000
  200      -16.488975    -16.372553   1.000000   1.000000
  201      -16.449651    -16.341385   1.000000   1.000000
  202      -16.413856    -16.323892   1.000000   1.000000
  203      -16.394352    -16.308313   1.000000   1.000000
  204      -16.390532    -16.273061   1.000000   1.000000
  205      -16.339748    -16.236700   1.000000   1.000000
  206      -16.324523    -16.221306   1.000000   1.000000
  207      -16.286355    -16.184325   1.000000   1.000000
  208      -16.271964    -16.157911   1.000000   1.000000
  209      -16.258486    -16.142826   1.000000   1.000000
  210      -16.252699    -16.075293   1.000000   1.000000
  211      -16.153258    -16.040409   1.000000   1.000000
  212      -16.123113    -16.000738   1.000000   1.000000
  213      -16.090126    -15.960592   1.000000   1.000000
  214      -16.056498    -15.952729   1.000000   1.000000
  215      -16.045593    -15.912028   1.000000   1.000000
  216      -15.992239    -15.887529   1.000000   1.000000
  217      -15.794848    -15.780638   1.000000   1.000000
  218      -15.783894    -15.739329   1.000000   1.000000
  219      -15.750165    -15.719810   1.000000   1.000000
  220      -15.743084    -15.709875   1.000000   1.000000
  221      -15.740972    -15.698050   1.000000   1.000000
  222      -15.722794    -15.657890   1.000000   1.000000
  223      -15.700084    -15.651100   1.000000   1.000000
  224      -15.692688    -15.630002   1.000000   1.000000
  225      -15.674915    -15.603951   1.000000   1.000000
  226      -15.615975    -15.526874   1.000000   1.000000
  227      -15.569294    -15.504879   1.000000   1.000000
  228      -15.538110    -15.474934   1.000000   1.000000
  229      -15.490543    -15.448173   1.000000   1.000000
  230      -15.472201    -15.409773   1.000000   1.000000
  231      -15.430923    -15.399766   1.000000   1.000000
  232      -15.422355    -15.390529   1.000000   1.000000
  233      -15.401636    -15.376476   1.000000   1.000000
  234      -15.381826    -15.333661   1.000000   1.000000
  235      -15.356707    -15.315914   1.000000   1.000000
  236      -15.303968    -15.265719   1.000000   1.000000
  237      -15.287506    -15.252057   1.000000   1.000000
  238      -15.264545    -15.232101   1.000000   1.000000
  239      -15.248126    -15.223173   1.000000   1.000000
  240      -15.243237    -15.201512   1.000000   1.000000
  241      -15.223959    -15.173465   1.000000   1.000000
  242      -15.193201    -15.147925   1.000000   1.000000
  243      -15.165580    -15.113979   1.000000   1.000000
  244      -15.151672    -15.107524   1.000000   1.000000
  245      -15.133315    -15.068172   1.000000   1.000000
  246      -15.077296    -15.000695   1.000000   1.000000
  247      -15.050832    -14.984983   1.000000   1.000000
  248      -15.035733    -14.973064   1.000000   1.000000
  249      -15.012292    -14.952130   1.000000   1.000000
  250      -14.957875    -14.898999   1.000000   1.000000
  251      -14.952946    -14.884469   1.000000   1.000000
  252      -14.911323    -14.867303   1.000000   1.000000
  253      -14.869747    -14.856387   1.000000   1.000000
  254      -14.842225    -14.823846   1.000000   1.000000
  255      -14.828679    -14.812462   1.000000   1.000000
  256      -14.825292    -14.801552   1.000000   1.000000
  257      -14.820981    -14.794536   1.000000   1.000000
  258      -14.805076    -14.757530   1.000000   1.000000
  259      -14.801927    -14.738635   1.000000   1.000000
  260      -14.765910    -14.717868   1.000000   1.000000
  261      -14.754713    -14.695890   1.000000   1.000000
  262      -14.736095    -14.686094   1.000000   1.000000
  263      -14.714794    -14.654527   1.000000   1.000000
  264      -14.710286    -14.652163   1.000000   1.000000
  265      -14.678732    -14.630300   1.000000   1.000000
  266      -14.649359    -14.599696   1.000000   1.000000
  267      -14.629672    -14.592577   1.000000   1.000000
  268      -14.605761    -14.578336   1.000000   1.000000
  269      -14.595519    -14.572002   1.000000   1.000000
  270      -14.592488    -14.556909   1.000000   1.000000
  271      -14.574926    -14.528841   1.000000   1.000000
  272      -14.532443    -14.489536   1.000000   1.000000
  273      -14.523499    -14.482439   1.000000   1.000000
  274      -14.456335    -14.422978   1.000000   1.000000
  275      -14.448033    -14.413588   1.000000   1.000000
  276      -14.437829    -14.397780   1.000000   1.000000
  277      -14.428480    -14.367852   1.000000   1.000000
  278      -14.396696    -14.329303   1.000000   1.000000
  279      -14.374693    -14.307476   1.000000   1.000000
  280      -14.365029    -14.232208   1.000000   1.000000
  281      -14.240274    -14.177019   1.000000   1.000000
  282      -14.149725    -14.103782   1.000000   1.000000
  283      -14.097687    -14.056775   1.000000   1.000000
  284      -13.962290    -13.937475   1.000000   1.000000
  285      -13.928053    -13.871146   1.000000   1.000000
  286      -13.901261    -13.811370   1.000000   1.000000
  287      -12.257994    -12.230968   1.000000   1.000000
  288       -6.831860     -6.763721   1.000000   1.000000
  289       -5.707317     -5.557778   1.000000   1.000000
  290       -5.365753     -5.329974   1.000000   1.000000
  291       -5.337257     -5.308660   1.000000   1.000000
  292       -5.052712     -4.838486   1.000000   1.000000
  293       -4.882678     -4.768407   1.000000   1.000000
  294       -4.779384     -4.755134   1.000000   1.000000
  295       -4.765274     -4.748695   1.000000   1.000000
  296       -4.751883     -4.742741   1.000000   1.000000
  297       -4.746612     -4.654293   1.000000   1.000000
  298       -4.712500     -4.588593   1.000000   1.000000
  299       -4.693258     -4.488581   1.000000   1.000000
  300       -4.650774     -4.451031   1.000000   1.000000
  301       -4.456270     -4.353011   1.000000   1.000000
  302       -4.428396     -4.345254   1.000000   1.000000
  303       -4.363644     -4.327360   1.000000   1.000000
  304       -4.353243     -4.306823   1.000000   1.000000
  305       -4.323176     -4.298973   1.000000   1.000000
  306       -4.314306     -4.287101   1.000000   1.000000
  307       -4.280194     -4.259953   1.000000   1.000000
  308       -4.271209     -4.248102   1.000000   1.000000
  309       -4.260004     -4.243633   1.000000   1.000000
  310       -4.247951     -4.234355   1.000000   1.000000
  311       -4.247136     -4.219034   1.000000   1.000000
  312       -4.233795     -4.211343   1.000000   1.000000
  313       -4.222491     -4.206430   1.000000   1.000000
  314       -4.215163     -4.196979   1.000000   1.000000
  315       -4.212417     -4.179248   1.000000   1.000000
  316       -4.194114     -4.155463   1.000000   1.000000
  317       -4.179940     -4.150611   1.000000   1.000000
  318       -4.169788     -4.134779   1.000000   1.000000
  319       -4.149206     -4.127461   1.000000   1.000000
  320       -4.134569     -4.098334   1.000000   1.000000
  321       -4.121217     -4.095641   1.000000   1.000000
  322       -4.113902     -4.076905   1.000000   1.000000
  323       -4.094670     -4.068201   1.000000   1.000000
  324       -4.084602     -4.050118   1.000000   1.000000
  325       -4.071350     -4.026407   1.000000   1.000000
  326       -4.060889     -4.017483   1.000000   1.000000
  327       -4.042223     -4.007796   1.000000   1.000000
  328       -4.035306     -3.992725   1.000000   1.000000
  329       -4.027649     -3.973953   1.000000   1.000000
  330       -4.016733     -3.968864   1.000000   1.000000
  331       -4.002244     -3.952533   1.000000   1.000000
  332       -3.986913     -3.942580   1.000000   1.000000
  333       -3.977954     -3.936555   1.000000   1.000000
  334       -3.975005     -3.930629   1.000000   1.000000
  335       -3.958214     -3.921251   1.000000   1.000000
  336       -3.951436     -3.913477   1.000000   1.000000
  337       -3.937838     -3.909136   1.000000   1.000000
  338       -3.933414     -3.900192   1.000000   1.000000
  339       -3.925900     -3.898076   1.000000   1.000000
  340       -3.917380     -3.891884   1.000000   1.000000
  341       -3.908617     -3.877365   1.000000   1.000000
  342       -3.902388     -3.875046   1.000000   1.000000
  343       -3.887998     -3.859872   1.000000   1.000000
  344       -3.885206     -3.850894   1.000000   1.000000
  345       -3.882545     -3.846355   1.000000   1.000000
  346       -3.879520     -3.838035   1.000000   1.000000
  347       -3.869385     -3.822086   1.000000   1.000000
  348       -3.865923     -3.808763   1.000000   1.000000
  349       -3.862538     -3.803425   1.000000   1.000000
  350       -3.848383     -3.791254   1.000000   1.000000
  351       -3.842837     -3.784446   1.000000   1.000000
  352       -3.828125     -3.778612   1.000000   1.000000
  353       -3.819190     -3.754088   1.000000   1.000000
  354       -3.813269     -3.739158   1.000000   1.000000
  355       -3.793614     -3.725826   1.000000   1.000000
  356       -3.790538     -3.713867   1.000000   1.000000
  357       -3.771987     -3.705061   1.000000   1.000000
  358       -3.752550     -3.693798   1.000000   1.000000
  359       -3.739986     -3.684032   1.000000   1.000000
  360       -3.730605     -3.663986   1.000000   1.000000
  361       -3.726892     -3.656797   1.000000   1.000000
  362       -3.697109     -3.633366   1.000000   1.000000
  363       -3.684527     -3.610473   1.000000   1.000000
  364       -3.681617     -3.604307   1.000000   1.000000
  365       -3.677256     -3.593718   1.000000   1.000000
  366       -3.659873     -3.589173   1.000000   1.000000
  367       -3.645069     -3.562747   1.000000   1.000000
  368       -3.622844     -3.558346   1.000000   1.000000
  369       -3.613653     -3.533530   1.000000   1.000000
  370       -3.610524     -3.532103   1.000000   1.000000
  371       -3.588328     -3.525004   1.000000   1.000000
  372       -3.584247     -3.516107   1.000000   1.000000
  373       -3.564938     -3.481907   1.000000   1.000000
  374       -3.555074     -3.461751   1.000000   1.000000
  375       -3.545574     -3.443857   1.000000   1.000000
  376       -3.532416     -3.436683   1.000000   1.000000
  377       -3.526249     -3.427285   1.000000   1.000000
  378       -3.510228     -3.425801   1.000000   1.000000
  379       -3.494382     -3.412458   1.000000   1.000000
  380       -3.484035     -3.393192   1.000000   1.000000
  381       -3.479571     -3.383068   1.000000   1.000000
  382       -3.476508     -3.375280   1.000000   1.000000
  383       -3.453133     -3.365590   1.000000   1.000000
  384       -3.446262     -3.347404   1.000000   1.000000
  385       -3.425171     -3.337639   1.000000   1.000000
  386       -3.423622     -3.336513   1.000000   1.000000
  387       -3.412953     -3.310722   1.000000   1.000000
  388       -3.386745     -3.303186   1.000000   1.000000
  389       -3.369293     -3.295323   1.000000   1.000000
  390       -3.352556     -3.293069   1.000000   1.000000
  391       -3.345309     -3.279576   1.000000   1.000000
  392       -3.338294     -3.274489   1.000000   1.000000
  393       -3.325289     -3.261211   1.000000   1.000000
  394       -3.308703     -3.257823   1.000000   1.000000
  395       -3.297171     -3.244540   1.000000   1.000000
  396       -3.281564     -3.233891   1.000000   1.000000
  397       -3.273402     -3.222801   1.000000   1.000000
  398       -3.272066     -3.211781   1.000000   1.000000
  399       -3.268593     -3.201135   1.000000   1.000000
  400       -3.257994     -3.192959   1.000000   1.000000
  401       -3.251898     -3.178794   1.000000   1.000000
  402       -3.236264     -3.170159   1.000000   1.000000
  403       -3.233440     -3.154000   1.000000   1.000000
  404       -3.218586     -3.148000   1.000000   1.000000
  405       -3.210820     -3.129735   1.000000   1.000000
  406       -3.204224     -3.113804   1.000000   1.000000
  407       -3.190657     -3.104298   1.000000   1.000000
  408       -3.189054     -3.090107   1.000000   1.000000
  409       -3.170901     -3.076384   1.000000   1.000000
  410       -3.165909     -3.070551   1.000000   1.000000
  411       -3.156744     -3.066104   1.000000   1.000000
  412       -3.139987     -3.055145   1.000000   1.000000
  413       -3.131535     -3.035953   1.000000   1.000000
  414       -3.123332     -3.023521   1.000000   1.000000
  415       -3.110543     -3.018157   1.000000   1.000000
  416       -3.094721     -3.007120   1.000000   1.000000
  417       -3.083534     -2.989262   1.000000   1.000000
  418       -3.062939     -2.986592   1.000000   1.000000
  419       -3.052752     -2.960607   1.000000   1.000000
  420       -3.035178     -2.950370   1.000000   1.000000
  421       -3.017565     -2.930364   1.000000   1.000000
  422       -3.011356     -2.925589   1.000000   1.000000
  423       -2.993291     -2.921647   1.000000   1.000000
  424       -2.987205     -2.912185   1.000000   1.000000
  425       -2.976626     -2.898203   1.000000   1.000000
  426       -2.968138     -2.879108   1.000000   1.000000
  427       -2.961365     -2.861375   1.000000   1.000000
  428       -2.950387     -2.844675   1.000000   1.000000
  429       -2.938487     -2.836242   1.000000   1.000000
  430       -2.930500     -2.811805   1.000000   1.000000
  431       -2.916313     -2.790991   1.000000   1.000000
  432       -2.902981     -2.750329   1.000000   1.000000
  433       -2.892195     -2.724517   1.000000   1.000000
  434       -2.878886     -2.712293   1.000000   1.000000
  435       -2.863816     -2.705503   1.000000   1.000000
  436       -2.858268     -2.698768   1.000000   1.000000
  437       -2.840536     -2.668198   1.000000   1.000000
  438       -2.820425     -2.661870   1.000000   1.000000
  439       -2.811138     -2.647427   1.000000   1.000000
  440       -2.775349     -2.639223   1.000000   1.000000
  441       -2.733709     -2.633278   1.000000   1.000000
  442       -2.722304     -2.612843   1.000000   1.000000
  443       -2.717861     -2.601618   1.000000   1.000000
  444       -2.694209     -2.589268   1.000000   1.000000
  445       -2.688869     -2.577526   1.000000   1.000000
  446       -2.672572     -2.561216   1.000000   1.000000
  447       -2.668696     -2.541975   1.000000   1.000000
  448       -2.647378     -2.526333   1.000000   1.000000
  449       -2.641136     -2.521306   1.000000   1.000000
  450       -2.635542     -2.484808   1.000000   1.000000
  451       -2.604357     -2.456121   1.000000   1.000000
  452       -2.599879     -2.438612   1.000000   1.000000
  453       -2.595038     -2.434756   1.000000   1.000000
  454       -2.591899     -2.419061   1.000000   1.000000
  455       -2.554847     -2.409355   1.000000   1.000000
  456       -2.538507     -2.401253   1.000000   1.000000
  457       -2.517410     -2.399214   1.000000   1.000000
  458       -2.498699     -2.395656   1.000000   1.000000
  459       -2.468680     -2.385648   1.000000   1.000000
  460       -2.453531     -2.375395   1.000000   1.000000
  461       -2.436077     -2.363847   1.000000   1.000000
  462       -2.433847     -2.355424   1.000000   1.000000
  463       -2.423768     -2.349093   1.000000   1.000000
  464       -2.413254     -2.344851   1.000000   1.000000
  465       -2.406932     -2.338946   1.000000   1.000000
  466       -2.401384     -2.330859   1.000000   1.000000
  467       -2.389961     -2.325897   1.000000   1.000000
  468       -2.382997     -2.325451   1.000000   1.000000
  469       -2.375561     -2.321189   1.000000   1.000000
  470       -2.364361     -2.308694   1.000000   1.000000
  471       -2.360785     -2.300993   1.000000   1.000000
  472       -2.355715     -2.288007   1.000000   1.000000
  473       -2.352842     -2.277170   1.000000   1.000000
  474       -2.346837     -2.265541   1.000000   1.000000
  475       -2.341764     -2.249274   1.000000   1.000000
  476       -2.330663     -2.239478   1.000000   1.000000
  477       -2.328402     -2.235837   1.000000   1.000000
  478       -2.322544     -2.227965   1.000000   1.000000
  479       -2.309675     -2.210780   1.000000   1.000000
  480       -2.297980     -2.202439   1.000000   1.000000
  481       -2.293225     -2.189610   1.000000   1.000000
  482       -2.283179     -2.179789   1.000000   1.000000
  483       -2.277252     -2.175517   1.000000   1.000000
  484       -2.268373     -2.169903   1.000000   1.000000
  485       -2.258779     -2.160548   1.000000   1.000000
  486       -2.245356     -2.154060   1.000000   1.000000
  487       -2.235462     -2.145443   1.000000   1.000000
  488       -2.229169     -2.142194   1.000000   1.000000
  489       -2.212452     -2.136179   1.000000   1.000000
  490       -2.208423     -2.113082   1.000000   1.000000
  491       -2.191870     -2.107190   1.000000   1.000000
  492       -2.186817     -2.103192   1.000000   1.000000
  493       -2.181336     -2.096414   1.000000   1.000000
  494       -2.175503     -2.089507   1.000000   1.000000
  495       -2.166717     -2.074300   1.000000   1.000000
  496       -2.161721     -2.068667   1.000000   1.000000
  497       -2.155632     -2.064764   1.000000   1.000000
  498       -2.135529     -2.052497   1.000000   1.000000
  499       -2.129248     -2.044069   1.000000   1.000000
  500       -2.124236     -2.034052   1.000000   1.000000
  501       -2.113451     -2.020016   1.000000   1.000000
  502       -2.108034     -2.008706   1.000000   1.000000
  503       -2.098364     -2.003170   1.000000   1.000000
  504       -2.085957     -1.994886   1.000000   1.000000
  505       -2.078968     -1.985192   1.000000   1.000000
  506       -2.068903     -1.973562   1.000000   1.000000
  507       -2.056664     -1.970046   1.000000   1.000000
  508       -2.050823     -1.951787   1.000000   1.000000
  509       -2.045787     -1.949017   1.000000   1.000000
  510       -2.041855     -1.942556   1.000000   1.000000
  511       -2.036371     -1.923178   1.000000   1.000000
  512       -2.018893     -1.917738   1.000000   1.000000