       N       E                     dE             d eps       ncg     rms          rms(c)
DAV:   1     0.202004955716E+05    0.20200E+05   -0.48101E+05  3328   0.152E+03
DAV:   2     0.744134895520E+04   -0.12759E+05   -0.11092E+05  3696   0.382E+02
DAV:   3     0.618544754966E+03   -0.68228E+04   -0.65169E+04  4496   0.259E+02
DAV:   4    -0.118412645345E+04   -0.18027E+04   -0.17225E+04  4688   0.135E+02
DAV:   5    -0.136786647127E+04   -0.18374E+03   -0.18146E+03  5536   0.545E+01    0.131E+02
RMM:   6    -0.111561032315E+04    0.25226E+03   -0.38712E+03  4865   0.670E+01    0.193E+02
RMM:   7    -0.142796227593E+04   -0.31235E+03   -0.14193E+03  4794   0.539E+01    0.212E+02
RMM:   8    -0.108831358209E+04    0.33965E+03   -0.41411E+02  4254   0.354E+01    0.750E+01
RMM:   9    -0.956154360783E+03    0.13216E+03   -0.18417E+02  4115   0.182E+01    0.102E+02
RMM:  10    -0.961029509385E+03   -0.48751E+01   -0.99075E+01  4107   0.151E+01    0.626E+01
RMM:  11    -0.846741934119E+03    0.11429E+03   -0.19604E+02  4122   0.183E+01    0.528E+01
RMM:  12    -0.795185279403E+03    0.51557E+02   -0.17280E+02  4469   0.156E+01    0.457E+01
RMM:  13    -0.775942606601E+03    0.19243E+02   -0.54376E+01  4674   0.683E+00    0.442E+01
RMM:  14    -0.763705616371E+03    0.12237E+02   -0.15245E+01  4489   0.458E+00    0.421E+01
RMM:  15    -0.747493988133E+03    0.16212E+02   -0.36269E+01  4132   0.692E+00    0.347E+01
RMM:  16    -0.747956656755E+03   -0.46267E+00   -0.30926E+01  4313   0.627E+00    0.366E+01
RMM:  17    -0.753333108833E+03   -0.53765E+01   -0.16752E+01  4273   0.425E+00    0.329E+01
RMM:  18    -0.758952685462E+03   -0.56196E+01   -0.78280E+00  4293   0.332E+00    0.269E+01
RMM:  19    -0.772088837159E+03   -0.13136E+02   -0.97216E+00  4118   0.342E+00    0.379E+01
RMM:  20    -0.780017220911E+03   -0.79284E+01   -0.70162E+00  4141   0.315E+00    0.291E+01
RMM:  21    -0.797904954557E+03   -0.17888E+02   -0.97871E+00  3936   0.386E+00    0.254E+01
RMM:  22    -0.827294023547E+03   -0.29389E+02   -0.21543E+01  4027   0.568E+00    0.209E+01
RMM:  23    -0.859982841535E+03   -0.32689E+02   -0.31436E+01  4189   0.542E+00    0.444E+01
RMM:  24    -0.868873827748E+03   -0.88910E+01   -0.15261E+01  4230   0.375E+00    0.334E+01
RMM:  25    -0.870098736012E+03   -0.12249E+01   -0.61224E+00  4803   0.169E+00    0.328E+01
RMM:  26    -0.869140770887E+03    0.95797E+00   -0.17439E+00  5198   0.857E-01    0.344E+01
RMM:  27    -0.876159921228E+03   -0.70192E+01   -0.45781E+00  4228   0.142E+00    0.459E+01
RMM:  28    -0.876523331569E+03   -0.36341E+00   -0.22427E+00  4650   0.910E-01    0.572E+01
RMM:  29    -0.876596552149E+03   -0.73221E-01   -0.11923E+00  5299   0.500E-01    0.620E+01
RMM:  30    -0.876654823491E+03   -0.58271E-01   -0.66850E-01  5091   0.403E-01    0.639E+01
RMM:  31    -0.877351998338E+03   -0.69717E+00   -0.44078E-01  5040   0.322E-01    0.691E+01
RMM:  32    -0.877502129424E+03   -0.15013E+00   -0.19635E-01  4168   0.387E-01    0.700E+01
RMM:  33    -0.878893563974E+03   -0.13914E+01   -0.28232E-01  4136   0.454E-01    0.682E+01
RMM:  34    -0.879022429235E+03   -0.12887E+00   -0.14096E-01  3936   0.487E-01    0.695E+01
RMM:  35    -0.879163233960E+03   -0.14080E+00   -0.74387E-02  3925   0.402E-01    0.654E+01
RMM:  36    -0.879486852790E+03   -0.32362E+00   -0.65615E-02  3854   0.384E-01    0.647E+01
RMM:  37    -0.879562983109E+03   -0.76130E-01   -0.52664E-02  4040   0.345E-01    0.660E+01
RMM:  38    -0.879285030979E+03    0.27795E+00   -0.30727E-02  4120   0.244E-01    0.636E+01
RMM:  39    -0.879412514114E+03   -0.12748E+00   -0.22483E-02  4226   0.202E-01    0.644E+01
RMM:  40    -0.879610701848E+03   -0.19819E+00   -0.99445E-03  4400   0.138E-01    0.632E+01
RMM:  41    -0.879896485729E+03   -0.28578E+00   -0.13169E-02  3993   0.157E-01    0.631E+01
RMM:  42    -0.879943403250E+03   -0.46918E-01   -0.12746E-02  3988   0.166E-01    0.633E+01
RMM:  43    -0.879961083254E+03   -0.17680E-01   -0.21271E-02  3911   0.230E-01    0.633E+01
RMM:  44    -0.882354750656E+03   -0.23937E+01   -0.10911E-01  3890   0.470E-01    0.714E+01
RMM:  45    -0.882170021305E+03    0.18473E+00   -0.10730E-01  3875   0.495E-01    0.711E+01
RMM:  46    -0.882224404683E+03   -0.54383E-01   -0.54572E-02  3772   0.371E-01    0.713E+01
RMM:  47    -0.883154798979E+03   -0.93039E+00   -0.40805E-02  3901   0.272E-01    0.736E+01
RMM:  48    -0.882936584294E+03    0.21821E+00   -0.24198E-02  4088   0.226E-01    0.739E+01
RMM:  49    -0.883008940580E+03   -0.72356E-01   -0.91176E-03  4239   0.141E-01    0.740E+01
RMM:  50    -0.882891219423E+03    0.11772E+00   -0.40239E-03  3958   0.872E-02    0.739E+01
RMM:  51    -0.882539670423E+03    0.35155E+00   -0.23377E+01  3818   0.610E+00    0.292E+01
RMM:  52    -0.890736072549E+03   -0.81964E+01   -0.68785E+00  4026   0.408E+00    0.221E+01
RMM:  53    -0.903050999133E+03   -0.12315E+02   -0.58209E+00  4080   0.311E+00    0.203E+01
RMM:  54    -0.916130284082E+03   -0.13079E+02   -0.57527E+00  4246   0.293E+00    0.352E+01
RMM:  55    -0.921068689991E+03   -0.49384E+01   -0.23835E+00  4526   0.168E+00    0.419E+01
RMM:  56    -0.921116349024E+03   -0.47659E-01   -0.17730E+00  4111   0.168E+00    0.377E+01
RMM:  57    -0.930324509409E+03   -0.92082E+01   -0.28278E+00  3977   0.210E+00    0.321E+01
RMM:  58    -0.934682015210E+03   -0.43575E+01   -0.15661E+00  4248   0.151E+00    0.320E+01
RMM:  59    -0.944187391137E+03   -0.95054E+01   -0.32293E+00  3883   0.227E+00    0.314E+01
RMM:  60    -0.952784198944E+03   -0.85968E+01   -0.38497E+00  4219   0.236E+00    0.308E+01
RMM:  61    -0.963373510662E+03   -0.10589E+02   -0.11728E+01  3963   0.439E+00    0.360E+01
RMM:  62    -0.961909548349E+03    0.14640E+01   -0.39523E+00  4021   0.286E+00    0.305E+01
RMM:  63    -0.971561367028E+03   -0.96518E+01   -0.77818E+00  4031   0.353E+00    0.281E+01
RMM:  64    -0.983607361193E+03   -0.12046E+02   -0.11633E+01  4374   0.443E+00    0.236E+01
RMM:  65    -0.995949178484E+03   -0.12342E+02   -0.16395E+01  4440   0.494E+00    0.246E+01
RMM:  66    -0.100442205361E+04   -0.84729E+01   -0.83429E+00  4330   0.437E+00    0.341E+01
RMM:  67    -0.100669447648E+04   -0.22724E+01   -0.72426E+00  4346   0.370E+00    0.242E+01
RMM:  68    -0.100998906172E+04   -0.32946E+01   -0.22523E+00  4323   0.219E+00    0.234E+01
RMM:  69    -0.101231759683E+04   -0.23285E+01   -0.14393E+00  4600   0.138E+00    0.231E+01
RMM:  70    -0.102134836479E+04   -0.90308E+01   -0.78685E+00  4145   0.364E+00    0.229E+01
RMM:  71    -0.102524116018E+04   -0.38928E+01   -0.15688E+01  4166   0.543E+00    0.219E+01
RMM:  72    -0.102967481383E+04   -0.44337E+01   -0.10408E+01  4299   0.384E+00    0.210E+01
RMM:  73    -0.103229143021E+04   -0.26166E+01   -0.54397E+00  4365   0.342E+00    0.196E+01
RMM:  74    -0.103536045590E+04   -0.30690E+01   -0.11332E+01  4385   0.411E+00    0.189E+01
RMM:  75    -0.103627586454E+04   -0.91541E+00   -0.97084E+00  4534   0.361E+00    0.179E+01
RMM:  76    -0.103817836763E+04   -0.19025E+01   -0.11002E+01  4202   0.496E+00    0.173E+01
RMM:  77    -0.104035877516E+04   -0.21804E+01   -0.35863E+00  4348   0.282E+00    0.156E+01
RMM:  78    -0.104212073469E+04   -0.17620E+01   -0.39489E+00  4436   0.252E+00    0.152E+01
RMM:  79    -0.104294405406E+04   -0.82332E+00   -0.21529E+00  4170   0.224E+00    0.144E+01
RMM:  80    -0.104109809145E+04    0.18460E+01   -0.23111E+00  4582   0.161E+00    0.138E+01
RMM:  81    -0.105295070535E+04   -0.11853E+02   -0.71877E+00  4042   0.417E+00    0.175E+01
RMM:  82    -0.105448716411E+04   -0.15365E+01   -0.29965E+00  4114   0.273E+00    0.176E+01
RMM:  83    -0.105412858096E+04    0.35858E+00   -0.16114E+00  4433   0.174E+00    0.170E+01
RMM:  84    -0.105396293159E+04    0.16565E+00   -0.12600E+00  4476   0.145E+00    0.173E+01
RMM:  85    -0.105380038155E+04    0.16255E+00   -0.74407E-01  4625   0.939E-01    0.166E+01
RMM:  86    -0.105566717817E+04   -0.18668E+01   -0.41208E+00  4221   0.278E+00    0.122E+01
RMM:  87    -0.105714892941E+04   -0.14818E+01   -0.17632E+00  4390   0.158E+00    0.116E+01
RMM:  88    -0.105739776114E+04   -0.24883E+00   -0.15752E+00  4447   0.145E+00    0.125E+01
RMM:  89    -0.105679416208E+04    0.60360E+00   -0.15866E+00  4415   0.148E+00    0.125E+01
RMM:  90    -0.105439167657E+04    0.24025E+01   -0.20193E+00  4578   0.155E+00    0.125E+01
RMM:  91    -0.106241006646E+04   -0.80184E+01   -0.16306E+01  3998   0.481E+00    0.178E+01
RMM:  92    -0.106399973463E+04   -0.15897E+01   -0.23169E+00  4118   0.204E+00    0.145E+01
RMM:  93    -0.106541895764E+04   -0.14192E+01   -0.18435E+00  4228   0.157E+00    0.111E+01
RMM:  94    -0.106705947885E+04   -0.16405E+01   -0.27037E+00  4415   0.162E+00    0.105E+01
RMM:  95    -0.106750253626E+04   -0.44306E+00   -0.13894E+00  4495   0.118E+00    0.943E+00
RMM:  96    -0.106632312548E+04    0.11794E+01   -0.25002E+00  4447   0.165E+00    0.931E+00
RMM:  97    -0.106627413185E+04    0.48994E-01   -0.15663E+00  4396   0.136E+00    0.812E+00
RMM:  98    -0.106617380137E+04    0.10033E+00   -0.25605E+00  4593   0.146E+00    0.967E+00
RMM:  99    -0.106643857277E+04   -0.26477E+00   -0.60797E-01  4112   0.873E-01    0.907E+00
RMM: 100    -0.106669918612E+04   -0.26061E+00   -0.20272E+00  4554   0.680E-01    0.836E+00
RMM: 101    -0.106678167248E+04   -0.82486E-01   -0.14018E+00  4485   0.883E-01    0.844E+00
RMM: 102    -0.106685087686E+04   -0.69204E-01   -0.10212E+00  4476   0.472E-01    0.853E+00
RMM: 103    -0.106680420492E+04    0.46672E-01   -0.11175E+00  4514   0.376E-01    0.834E+00
RMM: 104    -0.106683953047E+04   -0.35326E-01   -0.15709E-01  4351   0.324E-01    0.826E+00
RMM: 105    -0.106702925042E+04   -0.18972E+00   -0.13879E+00  4512   0.445E-01    0.792E+00
RMM: 106    -0.106722933615E+04   -0.20009E+00   -0.20121E+00  4484   0.112E+00    0.772E+00
RMM: 107    -0.106726301027E+04   -0.33674E-01   -0.11622E+00  4123   0.999E-01    0.769E+00
RMM: 108    -0.106752722460E+04   -0.26421E+00   -0.18496E+00  4548   0.772E-01    0.856E+00
RMM: 109    -0.106762188228E+04   -0.94658E-01   -0.92687E-01  4113   0.542E-01    0.101E+01
RMM: 110    -0.106766003433E+04   -0.38152E-01   -0.45518E-01  4473   0.200E-01    0.103E+01
RMM: 111    -0.106769544990E+04   -0.35416E-01   -0.42195E-01  4180   0.402E-01    0.108E+01
RMM: 112    -0.106772748397E+04   -0.32034E-01   -0.15820E-01  4048   0.374E-01    0.106E+01
RMM: 113    -0.106750780137E+04    0.21968E+00   -0.74402E-01  4208   0.501E-01    0.100E+01
RMM: 114    -0.106757886909E+04   -0.71068E-01   -0.61835E-01  4488   0.334E-01    0.101E+01
RMM: 115    -0.106763066926E+04   -0.51800E-01   -0.60974E-01  4366   0.249E-01    0.102E+01
RMM: 116    -0.106855101152E+04   -0.92034E+00   -0.41734E+00  4183   0.106E+00    0.134E+01
RMM: 117    -0.106787171448E+04    0.67930E+00   -0.54029E-01  4244   0.606E-01    0.108E+01
RMM: 118    -0.106784238660E+04    0.29328E-01   -0.98796E-01  4556   0.477E-01    0.902E+00
RMM: 119    -0.106788441691E+04   -0.42030E-01   -0.26061E-01  4526   0.358E-01    0.931E+00
RMM: 120    -0.106790854507E+04   -0.24128E-01   -0.74428E-02  4320   0.275E-01    0.931E+00
RMM: 121    -0.106784943555E+04    0.59110E-01   -0.63955E-02  4360   0.184E-01    0.913E+00
RMM: 122    -0.106780696467E+04    0.42471E-01   -0.26509E-02  4323   0.118E-01    0.850E+00
RMM: 123    -0.106787427900E+04   -0.67314E-01   -0.56533E-01  4261   0.429E-01    0.952E+00
RMM: 124    -0.106797289017E+04   -0.98611E-01   -0.72891E-01  4536   0.456E-01    0.112E+01
RMM: 125    -0.106804270141E+04   -0.69811E-01   -0.17851E-01  4361   0.296E-01    0.123E+01
RMM: 126    -0.106813926589E+04   -0.96564E-01   -0.13552E+00  4384   0.614E-01    0.190E+01
RMM: 127    -0.106758459228E+04    0.55467E+00   -0.11412E+00  4234   0.666E-01    0.142E+01
RMM: 128    -0.106779517953E+04   -0.21059E+00   -0.49680E-01  4542   0.439E-01    0.140E+01
RMM: 129    -0.106796779879E+04   -0.17262E+00   -0.22651E-01  4401   0.295E-01    0.141E+01
RMM: 130    -0.106821978165E+04   -0.25198E+00   -0.81443E-01  4345   0.416E-01    0.142E+01
RMM: 131    -0.106791047067E+04    0.30931E+00   -0.17246E-01  4166   0.383E-01    0.139E+01
RMM: 132    -0.106785969750E+04    0.50773E-01   -0.18543E-01  4475   0.200E-01    0.134E+01
RMM: 133    -0.106787694171E+04   -0.17244E-01   -0.22761E-02  4172   0.111E-01    0.136E+01
RMM: 134    -0.106787530316E+04    0.16386E-02   -0.40790E-02  4445   0.989E-02    0.136E+01
RMM: 135    -0.106786940694E+04    0.58962E-02   -0.34851E-01  4237   0.264E-01    0.134E+01
RMM: 136    -0.106730076879E+04    0.56864E+00   -0.60893E-01  4150   0.835E-01    0.768E+00
RMM: 137    -0.106746739358E+04   -0.16662E+00   -0.64011E-01  4394   0.648E-01    0.903E+00
RMM: 138    -0.106749183094E+04   -0.24437E-01   -0.83208E-01  4439   0.430E-01    0.893E+00
RMM: 139    -0.106750498488E+04   -0.13154E-01   -0.35224E-01  4412   0.239E-01    0.847E+00
RMM: 140    -0.106750958047E+04   -0.45956E-02   -0.75337E-02  4453   0.953E-02    0.825E+00
RMM: 141    -0.106738573714E+04    0.12384E+00   -0.85954E-01  4161   0.102E+00    0.944E+00
RMM: 142    -0.106735840770E+04    0.27329E-01   -0.14887E+00  4364   0.756E-01    0.965E+00
RMM: 143    -0.106730380839E+04    0.54599E-01   -0.18326E+00  4416   0.647E-01    0.981E+00
RMM: 144    -0.106730203039E+04    0.17780E-02   -0.27662E-01  4507   0.241E-01    0.980E+00
RMM: 145    -0.106731071591E+04   -0.86855E-02   -0.90083E-02  4428   0.102E-01    0.981E+00
RMM: 146    -0.106734476622E+04   -0.34050E-01   -0.25401E-01  4155   0.392E-01    0.987E+00
RMM: 147    -0.106728598589E+04    0.58780E-01   -0.16735E-01  4142   0.342E-01    0.983E+00
RMM: 148    -0.106718792444E+04    0.98061E-01   -0.66394E-01  4092   0.629E-01    0.984E+00
RMM: 149    -0.106735933667E+04   -0.17141E+00   -0.18189E+00  4475   0.791E-01    0.129E+01
RMM: 150    -0.106731489087E+04    0.44446E-01   -0.37022E-01  4092   0.363E-01    0.129E+01
RMM: 151    -0.106730814247E+04    0.67484E-02   -0.18595E-01  4029   0.460E-01    0.129E+01
RMM: 152    -0.106731917371E+04   -0.11031E-01   -0.29094E-01  4464   0.309E-01    0.128E+01
RMM: 153    -0.106720412956E+04    0.11504E+00   -0.54835E-01  4128   0.628E-01    0.107E+01
RMM: 154    -0.106726901509E+04   -0.64886E-01   -0.12366E+00  4461   0.784E-01    0.114E+01
RMM: 155    -0.106730056555E+04   -0.31550E-01   -0.22071E-01  4215   0.362E-01    0.117E+01
RMM: 156    -0.106713997083E+04    0.16059E+00   -0.22700E+00  3984   0.117E+00    0.122E+01
RMM: 157    -0.106723412398E+04   -0.94153E-01   -0.64046E-01  4445   0.372E-01    0.123E+01
RMM: 158    -0.106719952667E+04    0.34597E-01   -0.21304E-01  4056   0.419E-01    0.123E+01
RMM: 159    -0.106732332318E+04   -0.12380E+00   -0.36115E+00  4252   0.842E-01    0.126E+01
RMM: 160    -0.106727916795E+04    0.44155E-01   -0.54603E-01  4396   0.366E-01    0.129E+01
RMM: 161    -0.106757962657E+04   -0.30046E+00   -0.22720E+00  4044   0.994E-01    0.155E+01
RMM: 162    -0.106753695370E+04    0.42673E-01   -0.88436E-01  4278   0.663E-01    0.146E+01
RMM: 163    -0.106753760172E+04   -0.64802E-03   -0.19464E-01  4189   0.367E-01    0.155E+01
RMM: 164    -0.106748458943E+04    0.53012E-01   -0.85135E-01  4118   0.466E-01    0.155E+01
RMM: 165    -0.106750508119E+04   -0.20492E-01   -0.45522E-01  4473   0.282E-01    0.155E+01
RMM: 166    -0.106772269317E+04   -0.21761E+00   -0.44658E+00  4067   0.164E+00    0.157E+01
RMM: 167    -0.106750298241E+04    0.21971E+00   -0.17882E+00  4492   0.779E-01    0.134E+01
RMM: 168    -0.106754884287E+04   -0.45860E-01   -0.76998E-01  4338   0.592E-01    0.127E+01
RMM: 169    -0.106769761905E+04   -0.14878E+00   -0.53409E-01  4410   0.551E-01    0.126E+01
RMM: 170    -0.106780007737E+04   -0.10246E+00   -0.50815E-01  4217   0.519E-01    0.127E+01
RMM: 171    -0.106580334744E+04    0.19967E+01   -0.23227E+01  4272   0.311E+00    0.866E+00
RMM: 172    -0.106698352424E+04   -0.11802E+01   -0.67269E+00  4178   0.181E+00    0.750E+00
RMM: 173    -0.106709875903E+04   -0.11523E+00   -0.99248E-01  4362   0.878E-01    0.691E+00
RMM: 174    -0.106698433672E+04    0.11442E+00   -0.91313E-01  4529   0.556E-01    0.662E+00
RMM: 175    -0.106678881272E+04    0.19552E+00   -0.24495E-01  4553   0.339E-01    0.659E+00
RMM: 176    -0.106599318371E+04    0.79563E+00   -0.16733E+00  4210   0.782E-01    0.698E+00
RMM: 177    -0.106561022763E+04    0.38296E+00   -0.15635E+00  4503   0.491E-01    0.706E+00
RMM: 178    -0.106553252590E+04    0.77702E-01   -0.10031E-01  4631   0.185E-01    0.704E+00
RMM: 179    -0.106544779064E+04    0.84735E-01   -0.76267E-01  4173   0.413E-01    0.723E+00
RMM: 180    -0.106523689610E+04    0.21089E+00   -0.48549E-01  4532   0.333E-01    0.750E+00
RMM: 181    -0.106594008781E+04   -0.70319E+00   -0.24472E+00  4272   0.137E+00    0.839E+00
RMM: 182    -0.106596922408E+04   -0.29136E-01   -0.22251E+00  4083   0.143E+00    0.561E+00
RMM: 183    -0.106584864573E+04    0.12058E+00   -0.23150E+00  4307   0.703E-01    0.524E+00
RMM: 184    -0.106573287904E+04    0.11577E+00   -0.83583E-02  4236   0.265E-01    0.520E+00
RMM: 185    -0.106562535190E+04    0.10753E+00   -0.50614E-02  4313   0.215E-01    0.526E+00
RMM: 186    -0.106565484841E+04   -0.29497E-01   -0.16650E-01  4272   0.338E-01    0.534E+00
RMM: 187    -0.106552315226E+04    0.13170E+00   -0.17052E-01  4522   0.201E-01    0.539E+00
RMM: 188    -0.106552711778E+04   -0.39655E-02   -0.23035E-02  3976   0.119E-01    0.539E+00
RMM: 189    -0.106547838147E+04    0.48736E-01   -0.12109E-01  4260   0.177E-01    0.541E+00
RMM: 190    -0.106574507843E+04   -0.26670E+00   -0.48430E-01  4085   0.492E-01    0.532E+00
RMM: 191    -0.106628876930E+04   -0.54369E+00   -0.30272E+00  4187   0.155E+00    0.507E+00
RMM: 192    -0.106662980516E+04   -0.34104E+00   -0.88829E-01  4343   0.695E-01    0.478E+00
RMM: 193    -0.106624157568E+04    0.38823E+00   -0.64631E-01  4278   0.598E-01    0.473E+00
RMM: 194    -0.106603435308E+04    0.20722E+00   -0.78810E-01  4372   0.683E-01    0.631E+00
RMM: 195    -0.106605663177E+04   -0.22279E-01   -0.31256E-01  4419   0.333E-01    0.740E+00
RMM: 196    -0.106562194427E+04    0.43469E+00   -0.55399E-01  4050   0.790E-01    0.847E+00
RMM: 197    -0.106561396594E+04    0.79783E-02   -0.12462E-01  4410   0.239E-01    0.899E+00
RMM: 198    -0.106569275223E+04   -0.78786E-01   -0.22989E-02  3941   0.142E-01    0.878E+00
RMM: 199    -0.106593176980E+04   -0.23902E+00   -0.27476E-01  3955   0.492E-01    0.695E+00
RMM: 200    -0.106609658442E+04   -0.16481E+00   -0.43610E-01  4351   0.443E-01    0.624E+00
RMM: 201    -0.106667152317E+04   -0.57494E+00   -0.27791E+00  4119   0.156E+00    0.714E+00
RMM: 202    -0.106679686694E+04   -0.12534E+00   -0.10983E+00  4375   0.471E-01    0.853E+00
RMM: 203    -0.106681642523E+04   -0.19558E-01   -0.14385E-01  4020   0.214E-01    0.911E+00
RMM: 204    -0.106673530927E+04    0.81116E-01   -0.63967E-02  3978   0.219E-01    0.870E+00
RMM: 205    -0.106669341072E+04    0.41899E-01   -0.44524E-01  4160   0.519E-01    0.710E+00
RMM: 206    -0.106783579757E+04   -0.11424E+01   -0.15012E+01  4284   0.261E+00    0.588E+00
RMM: 207    -0.106819761734E+04   -0.36182E+00   -0.33427E+00  3992   0.132E+00    0.476E+00
RMM: 208    -0.106831011079E+04   -0.11249E+00   -0.15808E+00  4306   0.856E-01    0.421E+00
RMM: 209    -0.106826613220E+04    0.43979E-01   -0.87084E-01  4349   0.759E-01    0.383E+00
RMM: 210    -0.106828880012E+04   -0.22668E-01   -0.17875E+00  4464   0.805E-01    0.311E+00
RMM: 211    -0.106837727727E+04   -0.88477E-01   -0.74676E-01  4426   0.664E-01    0.290E+00
RMM: 212    -0.106842367453E+04   -0.46397E-01   -0.97544E-01  4511   0.653E-01    0.386E+00
RMM: 213    -0.106880819639E+04   -0.38452E+00   -0.17384E-01  4209   0.427E-01    0.835E+00
RMM: 214    -0.106874417220E+04    0.64024E-01   -0.55018E-02  4342   0.241E-01    0.810E+00
RMM: 215    -0.106873815316E+04    0.60190E-02   -0.49835E-03  4351   0.662E-02    0.809E+00
RMM: 216    -0.106873589036E+04    0.22628E-02   -0.19060E-02  4200   0.156E-01    0.818E+00
RMM: 217    -0.106875072384E+04   -0.14833E-01   -0.88007E-03  4219   0.100E-01    0.823E+00
RMM: 218    -0.106870642580E+04    0.44298E-01   -0.51834E-03  4105   0.696E-02    0.819E+00
RMM: 219    -0.106867694037E+04    0.29485E-01   -0.54009E-03  4267   0.544E-02    0.812E+00
RMM: 220    -0.106868745919E+04   -0.10519E-01   -0.17607E-03  3589   0.388E-02    0.816E+00
RMM: 221    -0.106877526716E+04   -0.87808E-01   -0.20810E-02  4173   0.148E-01    0.828E+00
RMM: 222    -0.106874803517E+04    0.27232E-01   -0.19617E-02  4185   0.124E-01    0.818E+00
RMM: 223    -0.106860523692E+04    0.14280E+00   -0.12000E-01  4325   0.335E-01    0.766E+00
RMM: 224    -0.106848769207E+04    0.11754E+00   -0.21872E-01  4528   0.332E-01    0.539E+00
RMM: 225    -0.106841672206E+04    0.70970E-01   -0.20354E-01  4386   0.409E-01    0.250E+00
RMM: 226    -0.106853570984E+04   -0.11899E+00   -0.75512E-02  4292   0.309E-01    0.354E+00
RMM: 227    -0.106861006565E+04   -0.74356E-01   -0.16423E-01  4067   0.377E-01    0.242E+00
RMM: 228    -0.106867782190E+04   -0.67756E-01   -0.12865E-01  4522   0.203E-01    0.224E+00
RMM: 229    -0.106872375863E+04   -0.45937E-01   -0.52165E-02  4330   0.177E-01    0.181E+00
RMM: 230    -0.106877280792E+04   -0.49049E-01   -0.92489E-02  4481   0.178E-01    0.254E+00
RMM: 231    -0.106875235417E+04    0.20454E-01   -0.37557E-02  4260   0.185E-01    0.245E+00
RMM: 232    -0.106874562296E+04    0.67312E-02   -0.26995E-02  4451   0.117E-01    0.187E+00
RMM: 233    -0.106875402554E+04   -0.84026E-02   -0.30587E-02  4207   0.131E-01    0.210E+00
RMM: 234    -0.106877410000E+04   -0.20074E-01   -0.42217E-02  4321   0.114E-01    0.182E+00
RMM: 235    -0.106878428413E+04   -0.10184E-01   -0.28496E-02  4180   0.110E-01    0.199E+00
RMM: 236    -0.106878196248E+04    0.23217E-02   -0.21646E-02  4218   0.888E-02    0.192E+00
RMM: 237    -0.106877985124E+04    0.21112E-02   -0.25552E-03  3635   0.285E-02    0.191E+00
RMM: 238    -0.106878007764E+04   -0.22640E-03   -0.25655E-04  2446   0.190E-02    0.189E+00
RMM: 239    -0.106876883746E+04    0.11240E-01   -0.46648E-03  3842   0.697E-02    0.191E+00
RMM: 240    -0.106876031778E+04    0.85197E-02   -0.66494E-03  4186   0.548E-02    0.193E+00
RMM: 241    -0.106875906831E+04    0.12495E-02   -0.21609E-02  3763   0.127E-01    0.215E+00
RMM: 242    -0.106876477678E+04   -0.57085E-02   -0.93485E-03  3895   0.529E-02    0.213E+00
RMM: 243    -0.106877838029E+04   -0.13604E-01   -0.84452E-03  3924   0.834E-02    0.197E+00
RMM: 244    -0.106879218115E+04   -0.13801E-01   -0.15301E-02  4295   0.800E-02    0.182E+00
RMM: 245    -0.106880215458E+04   -0.99734E-02   -0.61570E-03  4090   0.650E-02    0.175E+00
RMM: 246    -0.106904516550E+04   -0.24301E+00   -0.14828E+00  4176   0.122E+00    0.861E+00
RMM: 247    -0.106896995456E+04    0.75211E-01   -0.35596E-01  4289   0.404E-01    0.458E+00
RMM: 248    -0.106895548596E+04    0.14469E-01   -0.49985E-02  4435   0.188E-01    0.882E-01
RMM: 249    -0.106897566608E+04   -0.20180E-01   -0.31422E-02  4386   0.164E-01    0.769E-01
RMM: 250    -0.106898505210E+04   -0.93860E-02   -0.41909E-02  4360   0.141E-01    0.829E-01
RMM: 251    -0.106898867537E+04   -0.36233E-02   -0.31135E-02  4401   0.117E-01    0.845E-01
RMM: 252    -0.106898961237E+04   -0.93699E-03   -0.15166E-02  4320   0.660E-02    0.828E-01
RMM: 253    -0.106899037796E+04   -0.76559E-03   -0.68240E-03  4129   0.564E-02    0.816E-01
RMM: 254    -0.106899078169E+04   -0.40373E-03   -0.75548E-03  4060   0.421E-02    0.811E-01
RMM: 255    -0.106899165299E+04   -0.87129E-03   -0.40443E-03  3832   0.430E-02    0.795E-01
RMM: 256    -0.106899407983E+04   -0.24268E-02   -0.28855E-01  4338   0.448E-01    0.118E+00
RMM: 257    -0.106900272140E+04   -0.86416E-02   -0.38279E-02  4062   0.171E-01    0.111E+00
RMM: 258    -0.106900285139E+04   -0.12999E-03   -0.11704E-02  3903   0.114E-01    0.984E-01
RMM: 259    -0.106900305755E+04   -0.20617E-03   -0.18496E-02  4248   0.908E-02    0.914E-01
RMM: 260    -0.106900356261E+04   -0.50505E-03   -0.48938E-03  3983   0.522E-02    0.882E-01
RMM: 261    -0.106900360597E+04   -0.43360E-04   -0.15642E-02  4057   0.894E-02    0.810E-01
RMM: 262    -0.106900381393E+04   -0.20796E-03   -0.99207E-03  3991   0.451E-02    0.780E-01
RMM: 263    -0.106900401594E+04   -0.20201E-03   -0.18731E-03  3727   0.359E-02    0.757E-01
RMM: 264    -0.106900430529E+04   -0.28934E-03   -0.74647E-03  3860   0.634E-02    0.700E-01
RMM: 265    -0.106900465560E+04   -0.35032E-03   -0.24674E-02  4194   0.969E-02    0.617E-01
RMM: 266    -0.106900510740E+04   -0.45180E-03   -0.19918E-03  3352   0.298E-02    0.632E-01
RMM: 267    -0.106900543190E+04   -0.32450E-03   -0.17113E-03  3375   0.332E-02    0.608E-01
RMM: 268    -0.106900590969E+04   -0.47778E-03   -0.66023E-03  3818   0.537E-02    0.566E-01
RMM: 269    -0.106900661567E+04   -0.70598E-03   -0.10200E-02  3880   0.489E-02    0.534E-01
RMM: 270    -0.106900687917E+04   -0.26350E-03   -0.94907E-04  3497   0.238E-02    0.522E-01
RMM: 271    -0.106900768484E+04   -0.80567E-03   -0.41199E-03  3446   0.444E-02    0.496E-01
RMM: 272    -0.106900839002E+04   -0.70518E-03   -0.55693E-03  3485   0.332E-02    0.489E-01
RMM: 273    -0.106900934562E+04   -0.95560E-03   -0.67016E-03  3616   0.603E-02    0.457E-01
RMM: 274    -0.106900936701E+04   -0.21391E-04   -0.10214E-03  2778   0.242E-02    0.476E-01
RMM: 275    -0.106901037341E+04   -0.10064E-02   -0.68383E-03  3224   0.557E-02    0.452E-01
RMM: 276    -0.106901060760E+04   -0.23419E-03   -0.16530E-03  2807   0.185E-02    0.467E-01
RMM: 277    -0.106901101605E+04   -0.40845E-03   -0.44260E-04  2497   0.188E-02    0.472E-01
RMM: 278    -0.106901023529E+04    0.78076E-03   -0.63774E-04  2550   0.257E-02    0.462E-01
RMM: 279    -0.106901010542E+04    0.12987E-03   -0.23508E-04  2717   0.973E-03    0.454E-01
RMM: 280    -0.106900990504E+04    0.20038E-03   -0.10904E-04  2378   0.131E-02    0.449E-01
RMM: 281    -0.106901016540E+04   -0.26036E-03   -0.22304E-03  3537   0.408E-02    0.413E-01
RMM: 282    -0.106901036531E+04   -0.19991E-03   -0.14721E-03  3044   0.173E-02    0.410E-01
RMM: 283    -0.106901006431E+04    0.30100E-03   -0.51709E-04  2444   0.197E-02    0.421E-01
RMM: 284    -0.106901009572E+04   -0.31408E-04   -0.27916E-04  2410   0.850E-03    0.423E-01
RMM: 285    -0.106901008585E+04    0.98686E-05   -0.29454E-04  2630   0.160E-02    0.434E-01
RMM: 286    -0.106901128488E+04   -0.11990E-02   -0.33521E-02  3768   0.146E-01    0.336E-01
RMM: 287    -0.106901264724E+04   -0.13624E-02   -0.10614E-02  3530   0.390E-02    0.356E-01
RMM: 288    -0.106901251584E+04    0.13140E-03   -0.34801E-04  2491   0.172E-02    0.359E-01
RMM: 289    -0.106901269117E+04   -0.17533E-03   -0.17668E-04  2333   0.147E-02    0.362E-01
RMM: 290    -0.106901320165E+04   -0.51047E-03   -0.13641E-03  2778   0.255E-02    0.367E-01
RMM: 291    -0.106901124367E+04    0.19580E-02   -0.26055E-01  4027   0.414E-01    0.132E-01
RMM: 292    -0.106902115940E+04   -0.99157E-02   -0.13383E-01  4172   0.134E-01    0.814E-02
RMM: 293    -0.106902116562E+04   -0.62194E-05   -0.20595E-03  3982   0.433E-02    0.802E-02
RMM: 294    -0.106902123622E+04   -0.70600E-04   -0.58981E-04  3490   0.191E-02    0.803E-02
RMM: 295    -0.106902152230E+04   -0.28608E-03   -0.65195E-04  2640   0.199E-02    0.783E-02
RMM: 296    -0.106902241423E+04   -0.89193E-03   -0.71088E-03  3232   0.563E-02    0.690E-02
RMM: 297    -0.106902332884E+04   -0.91460E-03   -0.91342E-03  3248   0.405E-02    0.783E-02
RMM: 298    -0.106902171530E+04    0.16135E-02   -0.74600E-03  2917   0.640E-02    0.105E-01
RMM: 299    -0.106902367924E+04   -0.19639E-02   -0.70776E-03  3158   0.743E-02    0.661E-02
RMM: 300    -0.106902513930E+04   -0.14601E-02   -0.14769E-02  4071   0.614E-02
   1 F= -.10689864E+04 E0= -.10689437E+04  d E =-.106899E+04  mag=    15.9169
       N       E                     dE             d eps       ncg     rms          rms(c)
DAV:   1    -0.106902684946E+04   -0.31702E-02   -0.14836E-02  4544   0.828E-02    0.617E-02
RMM:   2    -0.106902792232E+04   -0.10729E-02   -0.59533E-03  3268   0.656E-02    0.807E-02
RMM:   3    -0.106902824342E+04   -0.32110E-03   -0.24763E-03  3107   0.241E-02    0.120E-01
RMM:   4    -0.106902844912E+04   -0.20570E-03   -0.25217E-04  2585   0.167E-02    0.800E-02
RMM:   5    -0.106902854070E+04   -0.91587E-04   -0.17327E-04  2254   0.978E-03    0.730E-02
RMM:   6    -0.106902768226E+04    0.85845E-03   -0.22765E-03  2688   0.365E-02    0.131E-01
RMM:   7    -0.106902699318E+04    0.68908E-03   -0.52852E-03  3179   0.365E-02    0.890E-02
RMM:   8    -0.106902628545E+04    0.70773E-03   -0.13959E-03  2725   0.303E-02    0.101E-01
RMM:   9    -0.106902651087E+04   -0.22543E-03   -0.19770E-04  2427   0.114E-02    0.974E-02
RMM:  10    -0.106902839516E+04   -0.18843E-02   -0.14747E-02  3125   0.835E-02    0.103E-01
RMM:  11    -0.106902922370E+04   -0.82854E-03   -0.80083E-03  3037   0.316E-02    0.708E-02
RMM:  12    -0.106903034747E+04   -0.11238E-02   -0.53722E-03  3167   0.528E-02    0.563E-02
RMM:  13    -0.106903126822E+04   -0.92074E-03   -0.74160E-03  3239   0.388E-02    0.581E-02
RMM:  14    -0.106903140270E+04   -0.13448E-03   -0.16558E-04  2491   0.136E-02    0.572E-02
RMM:  15    -0.106903146440E+04   -0.61704E-04   -0.63531E-05  2086   0.866E-03    0.569E-02
RMM:  16    -0.106903171458E+04   -0.25017E-03   -0.24066E-04  2403   0.133E-02    0.513E-02
RMM:  17    -0.106903220974E+04   -0.49517E-03   -0.12643E-03  2482   0.230E-02    0.444E-02
RMM:  18    -0.106903250985E+04   -0.30010E-03   -0.12757E-03  2496   0.168E-02    0.547E-02
RMM:  19    -0.106903259683E+04   -0.86987E-04   -0.41821E-05  2024   0.792E-03    0.534E-02
RMM:  20    -0.106903251919E+04    0.77639E-04   -0.14955E-05  1906   0.725E-03    0.561E-02
RMM:  21    -0.106903259003E+04   -0.70838E-04   -0.14969E-05  1871   0.500E-03    0.547E-02
RMM:  22    -0.106903317691E+04   -0.58688E-03   -0.13561E-03  2355   0.250E-02    0.442E-02
RMM:  23    -0.106903415395E+04   -0.97704E-03   -0.64462E-03  2799   0.477E-02    0.302E-02
RMM:  24    -0.106903500844E+04   -0.85448E-03   -0.71370E-03  2758   0.357E-02    0.525E-02
RMM:  25    -0.106903520536E+04   -0.19693E-03   -0.23377E-04  2475   0.145E-02    0.495E-02
RMM:  26    -0.106903505989E+04    0.14547E-03   -0.46902E-05  2020   0.110E-02    0.543E-02
RMM:  27    -0.106903519382E+04   -0.13392E-03   -0.57897E-05  1923   0.798E-03    0.518E-02
RMM:  28    -0.106903589039E+04   -0.69658E-03   -0.21572E-03  2448   0.310E-02    0.374E-02
RMM:  29    -0.106903658258E+04   -0.69219E-03   -0.42194E-03  2852   0.303E-02    0.515E-02
RMM:  30    -0.106903621352E+04    0.36907E-03   -0.40676E-04  2181   0.185E-02    0.589E-02
RMM:  31    -0.106903621807E+04   -0.45521E-05   -0.12496E-04  2012   0.607E-03    0.545E-02
RMM:  32    -0.106903616830E+04    0.49772E-04   -0.34688E-05  1912   0.708E-03    0.546E-02
RMM:  33    -0.106903618274E+04   -0.14447E-04   -0.45258E-06  1805   0.240E-03    0.534E-02
RMM:  34    -0.106903634453E+04   -0.16178E-03   -0.84173E-05  1938   0.684E-03    0.496E-02
RMM:  35    -0.106903658087E+04   -0.23635E-03   -0.32966E-04  2148   0.107E-02    0.466E-02
RMM:  36    -0.106903669859E+04   -0.11772E-03   -0.27691E-04  2081   0.797E-03    0.517E-02
RMM:  37    -0.106903668578E+04    0.12807E-04   -0.46217E-06  1814   0.380E-03    0.521E-02
RMM:  38    -0.106903664172E+04    0.44065E-04   -0.84529E-06  1814   0.361E-03    0.532E-02
RMM:  39    -0.106903662462E+04    0.17092E-04   -0.81902E-06  1772   0.238E-03    0.528E-02
RMM:  40    -0.106903662755E+04   -0.29256E-05   -0.82095E-07  1727   0.213E-03
   2 F= -.10689983E+04 E0= -.10689556E+04  d E =-.119045E-01  mag=    15.9449
       N       E                     dE             d eps       ncg     rms          rms(c)
DAV:   1    -0.106903652802E+04    0.96603E-04   -0.48944E-03  2896   0.327E-02    0.543E-02
RMM:   2    -0.106903742115E+04   -0.89313E-03   -0.52619E-03  3383   0.578E-02    0.503E-02
RMM:   3    -0.106903784535E+04   -0.42420E-03   -0.26164E-03  2746   0.218E-02    0.115E-01
RMM:   4    -0.106903797572E+04   -0.13037E-03   -0.12914E-04  2218   0.117E-02    0.667E-02
RMM:   5    -0.106903791052E+04    0.65199E-04   -0.17075E-05  1849   0.721E-03    0.764E-02
RMM:   6    -0.106903740719E+04    0.50334E-03   -0.79849E-04  2149   0.207E-02    0.861E-02
RMM:   7    -0.106903793634E+04   -0.52916E-03   -0.39181E-04  2148   0.200E-02    0.105E-01
RMM:   8    -0.106903946868E+04   -0.15323E-02   -0.11655E-02  2965   0.718E-02    0.141E-01
RMM:   9    -0.106904009532E+04   -0.62664E-03   -0.61546E-03  2762   0.291E-02    0.748E-02
RMM:  10    -0.106904043768E+04   -0.34236E-03   -0.56314E-04  2373   0.198E-02    0.679E-02
RMM:  11    -0.106904094243E+04   -0.50474E-03   -0.19067E-03  2450   0.247E-02    0.739E-02
RMM:  12    -0.106904060983E+04    0.33260E-03   -0.33899E-04  2012   0.172E-02    0.806E-02
RMM:  13    -0.106904044621E+04    0.16362E-03   -0.41638E-04  1990   0.977E-03    0.787E-02
RMM:  14    -0.106903972757E+04    0.71864E-03   -0.15632E-03  2256   0.269E-02    0.830E-02
RMM:  15    -0.106904020656E+04   -0.47899E-03   -0.23334E-04  2008   0.173E-02    0.759E-02
RMM:  16    -0.106904171989E+04   -0.15133E-02   -0.12986E-02  2792   0.775E-02    0.313E-02
RMM:  17    -0.106904265779E+04   -0.93790E-03   -0.92559E-03  2817   0.347E-02    0.544E-02
RMM:  18    -0.106904361232E+04   -0.95453E-03   -0.46013E-03  2677   0.490E-02    0.341E-02
RMM:  19    -0.106904484743E+04   -0.12351E-02   -0.11802E-02  3294   0.521E-02    0.515E-02
RMM:  20    -0.106904475761E+04    0.89821E-04   -0.10156E-04  2309   0.137E-02    0.537E-02
RMM:  21    -0.106904492911E+04   -0.17150E-03   -0.10723E-04  2008   0.104E-02    0.506E-02
RMM:  22    -0.106904486914E+04    0.59962E-04   -0.29242E-05  1792   0.697E-03    0.534E-02
RMM:  23    -0.106904539296E+04   -0.52381E-03   -0.11745E-03  2227   0.247E-02    0.426E-02
RMM:  24    -0.106904580945E+04   -0.41649E-03   -0.19349E-03  2638   0.198E-02    0.534E-02
RMM:  25    -0.106904589710E+04   -0.87652E-04   -0.55081E-05  1926   0.846E-03    0.526E-02
RMM:  26    -0.106904594156E+04   -0.44454E-04   -0.36816E-05  1772   0.512E-03    0.536E-02
RMM:  27    -0.106904593785E+04    0.37039E-05   -0.42301E-06  1699   0.421E-03
   3 F= -.10690076E+04 E0= -.10689648E+04  d E =-.926410E-02  mag=    15.9424
       N       E                     dE             d eps       ncg     rms          rms(c)
DAV:   1    -0.106904611596E+04   -0.17440E-03   -0.50874E-03  3072   0.320E-02    0.557E-02
RMM:   2    -0.106904692372E+04   -0.80776E-03   -0.47992E-03  3346   0.569E-02    0.543E-02
RMM:   3    -0.106904729069E+04   -0.36696E-03   -0.23072E-03  2613   0.214E-02    0.136E-01
RMM:   4    -0.106904745819E+04   -0.16750E-03   -0.19627E-04  2231   0.137E-02    0.692E-02
RMM:   5    -0.106904749037E+04   -0.32180E-04   -0.84729E-05  1813   0.746E-03    0.658E-02
RMM:   6    -0.106904500956E+04    0.24808E-02   -0.16290E-02  3067   0.930E-02    0.125E-01
RMM:   7    -0.106904526724E+04   -0.25768E-03   -0.77819E-03  2774   0.293E-02    0.749E-02
RMM:   8    -0.106904501400E+04    0.25324E-03   -0.26494E-04  2337   0.194E-02    0.908E-02
RMM:   9    -0.106904485697E+04    0.15703E-03   -0.33819E-04  2251   0.142E-02    0.662E-02
RMM:  10    -0.106904411210E+04    0.74487E-03   -0.17590E-03  2435   0.317E-02    0.768E-02
RMM:  11    -0.106904286887E+04    0.12432E-02   -0.69365E-03  2797   0.502E-02    0.866E-02
RMM:  12    -0.106904175084E+04    0.11180E-02   -0.17638E-02  3133   0.626E-02    0.716E-02
RMM:  13    -0.106903764466E+04    0.41062E-02   -0.32125E-02  3500   0.126E-01    0.122E-01
RMM:  14    -0.106903881921E+04   -0.11746E-02   -0.78134E-03  2472   0.299E-02    0.720E-02
RMM:  15    -0.106904118147E+04   -0.23623E-02   -0.10804E-01  3542   0.234E-01    0.675E-02
RMM:  16    -0.106904598292E+04   -0.48014E-02   -0.73202E-02  3467   0.920E-02    0.531E-02
RMM:  17    -0.106904626491E+04   -0.28199E-03   -0.15512E-03  2784   0.319E-02    0.415E-02
RMM:  18    -0.106904649092E+04   -0.22601E-03   -0.97320E-04  2374   0.165E-02    0.493E-02
RMM:  19    -0.106904702658E+04   -0.53566E-03   -0.13401E-03  2406   0.283E-02    0.375E-02
RMM:  20    -0.106904749574E+04   -0.46916E-03   -0.23667E-03  2643   0.242E-02    0.482E-02
RMM:  21    -0.106904833728E+04   -0.84155E-03   -0.34496E-03  2651   0.435E-02    0.303E-02
RMM:  22    -0.106904898718E+04   -0.64989E-03   -0.46428E-03  2713   0.299E-02    0.475E-02
RMM:  23    -0.106904907322E+04   -0.86047E-04   -0.10025E-04  2146   0.113E-02    0.477E-02
RMM:  24    -0.106904906903E+04    0.41911E-05   -0.14596E-05  1765   0.664E-03
   4 F= -.10690107E+04 E0= -.10689679E+04  d E =-.309313E-02  mag=    15.9427
       N       E                     dE             d eps       ncg     rms          rms(c)
DAV:   1    -0.106904912118E+04   -0.47957E-04   -0.28723E-03  2880   0.294E-02    0.509E-02
RMM:   2    -0.106904991153E+04   -0.79035E-03   -0.46357E-03  3226   0.559E-02    0.659E-02
RMM:   3    -0.106905017478E+04   -0.26325E-03   -0.18927E-03  2507   0.195E-02    0.120E-01
RMM:   4    -0.106905035457E+04   -0.17979E-03   -0.20534E-04  2157   0.153E-02    0.692E-02
RMM:   5    -0.106905041241E+04   -0.57845E-04   -0.11502E-04  1881   0.825E-03    0.673E-02
RMM:   6    -0.106904910480E+04    0.13076E-02   -0.59142E-03  2759   0.564E-02    0.152E-01
RMM:   7    -0.106904814515E+04    0.95965E-03   -0.14587E-02  3363   0.590E-02    0.656E-02
RMM:   8    -0.106904764692E+04    0.49823E-03   -0.88806E-04  2434   0.240E-02    0.686E-02
RMM:   9    -0.106904743771E+04    0.20921E-03   -0.10109E-03  2265   0.160E-02    0.577E-02
RMM:  10    -0.106904680495E+04    0.63276E-03   -0.13946E-03  2448   0.299E-02    0.950E-02
RMM:  11    -0.106904656759E+04    0.23737E-03   -0.17343E-03  2756   0.226E-02    0.780E-02
RMM:  12    -0.106904584813E+04    0.71946E-03   -0.16769E-03  2505   0.329E-02    0.773E-02
RMM:  13    -0.106904360799E+04    0.22401E-02   -0.15609E-02  3123   0.795E-02    0.958E-02
RMM:  14    -0.106904525963E+04   -0.16516E-02   -0.17190E-03  2457   0.459E-02    0.594E-02
RMM:  15    -0.106904731768E+04   -0.20580E-02   -0.10917E-01  3655   0.231E-01    0.626E-02
RMM:  16    -0.106904977045E+04   -0.24528E-02   -0.17490E-02  2890   0.524E-02    0.524E-02
RMM:  17    -0.106905024830E+04   -0.47785E-03   -0.12594E-03  2299   0.288E-02    0.404E-02
RMM:  18    -0.106905111878E+04   -0.87048E-03   -0.61266E-03  2641   0.470E-02    0.248E-02
RMM:  19    -0.106905187471E+04   -0.75593E-03   -0.65088E-03  2667   0.332E-02    0.482E-02
RMM:  20    -0.106905227334E+04   -0.39864E-03   -0.79711E-04  2454   0.232E-02    0.400E-02
RMM:  21    -0.106905288066E+04   -0.60732E-03   -0.30539E-03  2629   0.296E-02    0.478E-02
RMM:  22    -0.106905224498E+04    0.63568E-03   -0.13325E-03  2099   0.288E-02    0.609E-02
RMM:  23    -0.106905231534E+04   -0.70360E-04   -0.31850E-04  1885   0.727E-03    0.494E-02
RMM:  24    -0.106905250911E+04   -0.19377E-03   -0.21592E-04  1876   0.123E-02    0.452E-02
RMM:  25    -0.106905328288E+04   -0.77377E-03   -0.35303E-03  2410   0.390E-02    0.295E-02
RMM:  26    -0.106905417357E+04   -0.89069E-03   -0.73397E-03  2897   0.390E-02    0.474E-02
RMM:  27    -0.106905431711E+04   -0.14354E-03   -0.18688E-04  2354   0.136E-02    0.455E-02
RMM:  28    -0.106905432027E+04   -0.31601E-05   -0.40839E-05  1744   0.578E-03
   5 F= -.10690159E+04 E0= -.10689731E+04  d E =-.523269E-02  mag=    15.9422
       N       E                     dE             d eps       ncg     rms          rms(c)
DAV:   1    -0.106905436806E+04   -0.50942E-04   -0.84378E-04  3248   0.112E-02    0.500E-02
RMM:   2    -0.106905512171E+04   -0.75365E-03   -0.44362E-03  3155   0.533E-02    0.415E-02
RMM:   3    -0.106905553920E+04   -0.41749E-03   -0.25116E-03  2512   0.205E-02    0.875E-02
RMM:   4    -0.106905559457E+04   -0.55370E-04   -0.54479E-05  1882   0.934E-03    0.629E-02
RMM:   5    -0.106905525551E+04    0.33906E-03   -0.45320E-04  2046   0.188E-02    0.987E-02
RMM:   6    -0.106905389917E+04    0.13563E-02   -0.68734E-03  2748   0.549E-02    0.101E-01
RMM:   7    -0.106905449511E+04   -0.59594E-03   -0.56519E-04  2042   0.184E-02    0.102E-01
RMM:   8    -0.106905653656E+04   -0.20415E-02   -0.28379E-02  3164   0.122E-01    0.109E-01
RMM:   9    -0.106905764871E+04   -0.11121E-02   -0.12150E-02  2668   0.353E-02    0.659E-02
RMM:  10    -0.106905805239E+04   -0.40368E-03   -0.10076E-03  2367   0.274E-02    0.581E-02
RMM:  11    -0.106905853555E+04   -0.48316E-03   -0.23417E-03  2576   0.262E-02    0.611E-02
RMM:  12    -0.106905845603E+04    0.79514E-04   -0.44962E-05  1908   0.104E-02    0.633E-02
RMM:  13    -0.106905842920E+04    0.26834E-04   -0.32251E-05  1713   0.625E-03    0.628E-02
RMM:  14    -0.106905827063E+04    0.15857E-03   -0.10380E-04  1890   0.894E-03    0.628E-02
RMM:  15    -0.106905828033E+04   -0.97031E-05   -0.24890E-05  1631   0.340E-03
   6 F= -.10690199E+04 E0= -.10689771E+04  d E =-.395697E-02  mag=    15.9419
       N       E                     dE             d eps       ncg     rms          rms(c)
DAV:   1    -0.106905859929E+04   -0.32866E-03   -0.12587E-03  3168   0.201E-02    0.566E-02
RMM:   2    -0.106905943735E+04   -0.83806E-03   -0.45078E-03  3266   0.567E-02    0.210E-01
RMM:   3    -0.106905950107E+04   -0.63720E-04   -0.14672E-03  2483   0.221E-02    0.827E-02
RMM:   4    -0.106905959559E+04   -0.94513E-04   -0.32529E-04  2064   0.165E-02    0.628E-02
RMM:   5    -0.106905970357E+04   -0.10798E-03   -0.20800E-04  1992   0.939E-03    0.615E-02
RMM:   6    -0.106905945487E+04    0.24869E-03   -0.33366E-04  2031   0.164E-02    0.110E-01
RMM:   7    -0.106905824528E+04    0.12096E-02   -0.64077E-03  2861   0.558E-02    0.153E-01
RMM:   8    -0.106905697057E+04    0.12747E-02   -0.22054E-02  3313   0.758E-02    0.126E-01
RMM:   9    -0.106905609993E+04    0.87064E-03   -0.36302E-03  2828   0.433E-02    0.112E-01
RMM:  10    -0.106905460544E+04    0.14945E-02   -0.98420E-03  3001   0.599E-02    0.916E-02
RMM:  11    -0.106905684575E+04   -0.22403E-02   -0.10016E-02  2801   0.897E-02    0.822E-02
RMM:  12    -0.106905845884E+04   -0.16131E-02   -0.83649E-02  3564   0.184E-01    0.603E-02
RMM:  13    -0.106906128007E+04   -0.28212E-02   -0.30335E-02  2838   0.495E-02    0.543E-02
RMM:  14    -0.106906165060E+04   -0.37053E-03   -0.16802E-03  2458   0.308E-02    0.386E-02
RMM:  15    -0.106906227609E+04   -0.62549E-03   -0.35324E-03  2520   0.349E-02    0.357E-02
RMM:  16    -0.106906262624E+04   -0.35014E-03   -0.18972E-03  2482   0.216E-02    0.453E-02
RMM:  17    -0.106906300266E+04   -0.37643E-03   -0.91729E-04  2311   0.216E-02    0.414E-02
RMM:  18    -0.106906315153E+04   -0.14886E-03   -0.43513E-04  2262   0.130E-02    0.464E-02
RMM:  19    -0.106906300172E+04    0.14981E-03   -0.84216E-05  1817   0.104E-02    0.504E-02
RMM:  20    -0.106906314591E+04   -0.14419E-03   -0.49499E-05  1741   0.840E-03    0.464E-02
RMM:  21    -0.106906356324E+04   -0.41733E-03   -0.95210E-04  2195   0.210E-02    0.382E-02
RMM:  22    -0.106906426018E+04   -0.69694E-03   -0.41931E-03  2488   0.389E-02    0.260E-02
RMM:  23    -0.106906536747E+04   -0.11073E-02   -0.10973E-02  2970   0.505E-02    0.457E-02
RMM:  24    -0.106906511476E+04    0.25271E-03   -0.26511E-04  2221   0.182E-02    0.512E-02
RMM:  25    -0.106906514234E+04   -0.27582E-04   -0.74107E-05  1826   0.698E-03    0.474E-02
RMM:  26    -0.106906558681E+04   -0.44447E-03   -0.95330E-04  2138   0.228E-02    0.372E-02
RMM:  27    -0.106906611530E+04   -0.52849E-03   -0.27574E-03  2633   0.257E-02    0.470E-02
RMM:  28    -0.106906619221E+04   -0.76901E-04   -0.67429E-05  1993   0.966E-03    0.468E-02
RMM:  29    -0.106906619004E+04    0.21673E-05   -0.12479E-05  1689   0.516E-03
   7 F= -.10690277E+04 E0= -.10689850E+04  d E =-.788610E-02  mag=    15.9410
       N       E                     dE             d eps       ncg     rms          rms(c)
DAV:   1    -0.106906619231E+04   -0.10584E-06   -0.76367E-04  3312   0.110E-02    0.493E-02
RMM:   2    -0.106906688795E+04   -0.69564E-03   -0.40843E-03  3138   0.518E-02    0.398E-02
RMM:   3    -0.106906728586E+04   -0.39791E-03   -0.23720E-03  2501   0.203E-02    0.846E-02
RMM:   4    -0.106906732961E+04   -0.43750E-04   -0.44708E-05  1839   0.898E-03    0.609E-02
RMM:   5    -0.106906687530E+04    0.45432E-03   -0.88418E-04  2194   0.248E-02    0.102E-01
RMM:   6    -0.106906525483E+04    0.16205E-02   -0.10146E-02  2849   0.657E-02    0.105E-01
RMM:   7    -0.106906611336E+04   -0.85853E-03   -0.73289E-04  2130   0.253E-02    0.104E-01
RMM:   8    -0.106906812973E+04   -0.20164E-02   -0.35993E-02  3232   0.138E-01    0.638E-02
RMM:   9    -0.106906907641E+04   -0.94669E-03   -0.94508E-03  2321   0.300E-02    0.672E-02
RMM:  10    -0.106906949462E+04   -0.41821E-03   -0.97867E-04  2392   0.213E-02    0.541E-02
RMM:  11    -0.106906970193E+04   -0.20730E-03   -0.29230E-04  2262   0.154E-02    0.478E-02
RMM:  12    -0.106906985235E+04   -0.15042E-03   -0.34322E-04  2003   0.119E-02    0.508E-02
RMM:  13    -0.106906952252E+04    0.32982E-03   -0.41546E-04  1940   0.169E-02    0.576E-02
RMM:  14    -0.106906932226E+04    0.20026E-03   -0.69769E-04  2125   0.124E-02    0.519E-02
RMM:  15    -0.106906922613E+04    0.96128E-04   -0.44148E-05  1742   0.648E-03    0.533E-02
RMM:  16    -0.106906960363E+04   -0.37750E-03   -0.53248E-04  1909   0.176E-02    0.440E-02
RMM:  17    -0.106907030854E+04   -0.70490E-03   -0.38970E-03  2412   0.383E-02    0.297E-02
RMM:  18    -0.106907118788E+04   -0.87934E-03   -0.78710E-03  2862   0.402E-02    0.465E-02
RMM:  19    -0.106907134100E+04   -0.15312E-03   -0.19553E-04  2361   0.137E-02    0.440E-02
RMM:  20    -0.106907128794E+04    0.53054E-04   -0.29439E-05  1724   0.712E-03    0.472E-02
RMM:  21    -0.106907101112E+04    0.27682E-03   -0.30106E-04  1893   0.133E-02    0.534E-02
RMM:  22    -0.106907104761E+04   -0.36493E-04   -0.64471E-05  1749   0.433E-03    0.481E-02
RMM:  23    -0.106907103752E+04    0.10096E-04   -0.30558E-06  1528   0.301E-03    0.482E-02
RMM:  24    -0.106907103841E+04   -0.89477E-06   -0.68206E-07  1424   0.154E-03
   8 F= -.10690326E+04 E0= -.10689898E+04  d E =-.481207E-02  mag=    15.9406
       N       E                     dE             d eps       ncg     rms          rms(c)
DAV:   1    -0.106907102181E+04    0.15711E-04   -0.75468E-04  3056   0.835E-03    0.487E-02
RMM:   2    -0.106907170779E+04   -0.68598E-03   -0.40097E-03  3100   0.512E-02    0.638E-02
RMM:   3    -0.106907193689E+04   -0.22910E-03   -0.16381E-03  2396   0.182E-02    0.118E-01
RMM:   4    -0.106907212401E+04   -0.18712E-03   -0.23959E-04  2101   0.166E-02    0.652E-02
RMM:   5    -0.106907217655E+04   -0.52535E-04   -0.12970E-04  1855   0.798E-03    0.608E-02
RMM:   6    -0.106907091114E+04    0.12654E-02   -0.61678E-03  2730   0.572E-02    0.147E-01
RMM:   7    -0.106906985143E+04    0.10597E-02   -0.18502E-02  3401   0.680E-02    0.741E-02
RMM:   8    -0.106906932290E+04    0.52853E-03   -0.11378E-03  2500   0.273E-02    0.641E-02
RMM:   9    -0.106906879534E+04    0.52756E-03   -0.33700E-03  2606   0.302E-02    0.525E-02
RMM:  10    -0.106906809778E+04    0.69757E-03   -0.18750E-03  2606   0.340E-02    0.661E-02
RMM:  11    -0.106906827652E+04   -0.17874E-03   -0.31322E-04  2089   0.115E-02    0.543E-02
RMM:  12    -0.106906968166E+04   -0.14051E-02   -0.13160E-01  3553   0.249E-01    0.818E-02
RMM:  13    -0.106907336631E+04   -0.36846E-02   -0.29962E-02  2845   0.543E-02    0.526E-02
RMM:  14    -0.106907377252E+04   -0.40622E-03   -0.14011E-03  2380   0.373E-02    0.366E-02
RMM:  15    -0.106907425454E+04   -0.48201E-03   -0.26771E-03  2624   0.267E-02    0.456E-02
RMM:  16    -0.106907471663E+04   -0.46210E-03   -0.11630E-03  2354   0.270E-02    0.354E-02
RMM:  17    -0.106907499089E+04   -0.27425E-03   -0.13156E-03  2417   0.175E-02    0.459E-02
RMM:  18    -0.106907531905E+04   -0.32817E-03   -0.55437E-04  2235   0.197E-02    0.387E-02
RMM:  19    -0.106907563115E+04   -0.31210E-03   -0.11943E-03  2496   0.185E-02    0.454E-02
RMM:  20    -0.106907573778E+04   -0.10663E-03   -0.70081E-05  1888   0.969E-03    0.434E-02
RMM:  21    -0.106907545645E+04    0.28132E-03   -0.25435E-04  1931   0.151E-02    0.512E-02
RMM:  22    -0.106907644640E+04   -0.98995E-03   -0.48171E-03  2487   0.521E-02    0.251E-02
RMM:  23    -0.106907795483E+04   -0.15084E-02   -0.19279E-02  3266   0.706E-02    0.410E-02
RMM:  24    -0.106907801919E+04   -0.64362E-04   -0.70741E-04  2375   0.182E-02    0.454E-02
RMM:  25    -0.106907807122E+04   -0.52034E-04   -0.59825E-05  1946   0.994E-03    0.458E-02
RMM:  26    -0.106907805767E+04    0.13551E-04   -0.10027E-05  1730   0.561E-03    0.462E-02
RMM:  27    -0.106907806336E+04   -0.56836E-05   -0.34228E-06  1667   0.372E-03
   9 F= -.10690396E+04 E0= -.10689967E+04  d E =-.699940E-02  mag=    15.9398
       N       E                     dE             d eps       ncg     rms          rms(c)
DAV:   1    -0.106907802312E+04    0.34548E-04   -0.80762E-04  3264   0.105E-02    0.479E-02
RMM:   2    -0.106907869271E+04   -0.66959E-03   -0.38893E-03  3085   0.501E-02    0.539E-02
RMM:   3    -0.106907894458E+04   -0.25186E-03   -0.17071E-03  2439   0.187E-02    0.108E-01
RMM:   4    -0.106907912417E+04   -0.17960E-03   -0.22199E-04  2104   0.149E-02    0.587E-02
RMM:   5    -0.106907911580E+04    0.83780E-05   -0.50977E-05  1749   0.644E-03
  10 F= -.10690406E+04 E0= -.10689978E+04  d E =-.105117E-02  mag=    15.9397
       N       E                     dE             d eps       ncg     rms          rms(c)
DAV:   1    -0.106907908670E+04    0.37473E-04   -0.11723E-03  3488   0.350E-02    0.121E-01
RMM:   2    -0.106908270880E+04   -0.36221E-02   -0.74618E-03  3090   0.880E-02    0.120E+00
RMM:   3    -0.106908007987E+04    0.26289E-02   -0.27976E-03  2864   0.617E-02    0.109E-01
RMM:   4    -0.106907991165E+04    0.16822E-03   -0.38415E-04  2784   0.217E-02    0.773E-02
RMM:   5    -0.106908003222E+04   -0.12057E-03   -0.26038E-04  2194   0.143E-02    0.563E-02
RMM:   6    -0.106908003470E+04   -0.24837E-05   -0.31495E-05  1805   0.744E-03
  11 F= -.10690415E+04 E0= -.10689987E+04  d E =-.911713E-03  mag=    15.9397
       N       E                     dE             d eps       ncg     rms          rms(c)
DAV:   1    -0.106907943394E+04    0.59828E-03   -0.51291E-03  4832   0.666E-02    0.209E-01
RMM:   2    -0.106909066344E+04   -0.11230E-01   -0.15876E-02  3211   0.130E-01    0.227E+00
RMM:   3    -0.106908080158E+04    0.98619E-02   -0.65592E-03  2938   0.105E-01    0.247E-01
RMM:   4    -0.106908022451E+04    0.57707E-03   -0.83554E-04  2885   0.329E-02    0.165E-01
RMM:   5    -0.106908030064E+04   -0.76128E-04   -0.47721E-04  2766   0.233E-02    0.975E-02
RMM:   6    -0.106908049252E+04   -0.19189E-03   -0.56151E-04  2584   0.185E-02    0.681E-02
RMM:   7    -0.106908063367E+04   -0.14115E-03   -0.19760E-04  2129   0.130E-02    0.571E-02
RMM:   8    -0.106908077920E+04   -0.14552E-03   -0.23127E-04  2021   0.108E-02    0.543E-02
RMM:   9    -0.106908062216E+04    0.15704E-03   -0.93462E-05  1807   0.973E-03    0.619E-02
RMM:  10    -0.106908181967E+04   -0.11975E-02   -0.79287E-03  2687   0.648E-02    0.719E-02
RMM:  11    -0.106908377374E+04   -0.19541E-02   -0.26645E-02  3618   0.802E-02    0.108E-01
RMM:  12    -0.106908395735E+04   -0.18361E-03   -0.67366E-04  2866   0.239E-02    0.715E-02
RMM:  13    -0.106908521603E+04   -0.12587E-02   -0.13745E-02  3057   0.818E-02    0.675E-02
RMM:  14    -0.106908637046E+04   -0.11544E-02   -0.13722E-02  3023   0.465E-02    0.704E-02
RMM:  15    -0.106908572453E+04    0.64593E-03   -0.15457E-03  2360   0.335E-02    0.805E-02
RMM:  16    -0.106908597316E+04   -0.24863E-03   -0.12020E-04  1966   0.124E-02    0.744E-02
RMM:  17    -0.106908510028E+04    0.87289E-03   -0.31852E-03  2448   0.399E-02    0.687E-02
RMM:  18    -0.106908549800E+04   -0.39772E-03   -0.23589E-04  2002   0.163E-02    0.516E-02
RMM:  19    -0.106908593571E+04   -0.43770E-03   -0.67739E-04  2080   0.211E-02    0.400E-02
RMM:  20    -0.106908652934E+04   -0.59363E-03   -0.30534E-03  2411   0.337E-02    0.276E-02
RMM:  21    -0.106908701316E+04   -0.48382E-03   -0.34605E-03  2561   0.250E-02    0.443E-02
RMM:  22    -0.106908709730E+04   -0.84143E-04   -0.76358E-05  2048   0.999E-03    0.434E-02
RMM:  23    -0.106908707263E+04    0.24668E-04   -0.15702E-05  1694   0.600E-03    0.451E-02
RMM:  24    -0.106908707580E+04   -0.31640E-05   -0.45649E-06  1674   0.404E-03
  12 F= -.10690485E+04 E0= -.10690057E+04  d E =-.701556E-02  mag=    15.9389
       N       E                     dE             d eps       ncg     rms          rms(c)
DAV:   1    -0.106908704300E+04    0.29628E-04   -0.89166E-04  3296   0.109E-02    0.479E-02
RMM:   2    -0.106908767871E+04   -0.63571E-03   -0.37646E-03  3067   0.491E-02    0.479E-02
RMM:   3    -0.106908795345E+04   -0.27474E-03   -0.17898E-03  2502   0.194E-02    0.951E-02
RMM:   4    -0.106908809825E+04   -0.14479E-03   -0.15623E-04  2065   0.123E-02    0.602E-02
RMM:   5    -0.106908812642E+04   -0.28168E-04   -0.71574E-05  1716   0.676E-03    0.579E-02
RMM:   6    -0.106908676600E+04    0.13604E-02   -0.71504E-03  2742   0.620E-02    0.115E-01
RMM:   7    -0.106908646046E+04    0.30554E-03   -0.73190E-03  2843   0.358E-02    0.548E-02
RMM:   8    -0.106908581282E+04    0.64763E-03   -0.16374E-03  2456   0.315E-02    0.801E-02
RMM:   9    -0.106908520387E+04    0.60895E-03   -0.50893E-03  2833   0.363E-02    0.540E-02
RMM:  10    -0.106908480903E+04    0.39484E-03   -0.67794E-04  2323   0.221E-02    0.634E-02
RMM:  11    -0.106908451404E+04    0.29499E-03   -0.14700E-03  2508   0.203E-02    0.554E-02
RMM:  12    -0.106908262059E+04    0.18934E-02   -0.11123E-02  2936   0.754E-02    0.974E-02
RMM:  13    -0.106907879600E+04    0.38246E-02   -0.48427E-02  3680   0.130E-01    0.128E-01
RMM:  14    -0.106908226978E+04   -0.34738E-02   -0.57021E-03  2845   0.836E-02    0.699E-02
RMM:  15    -0.106908323537E+04   -0.96559E-03   -0.15629E-01  3801   0.276E-01    0.907E-02
RMM:  16    -0.106908763667E+04   -0.44013E-02   -0.34386E-02  2855   0.577E-02    0.523E-02
RMM:  17    -0.106908797837E+04   -0.34171E-03   -0.12707E-03  2410   0.383E-02    0.366E-02
RMM:  18    -0.106908881832E+04   -0.83994E-03   -0.70141E-03  2773   0.518E-02    0.203E-02
RMM:  19    -0.106908930328E+04   -0.48496E-03   -0.42599E-03  2471   0.235E-02    0.443E-02
RMM:  20    -0.106908981772E+04   -0.51444E-03   -0.15406E-03  2403   0.300E-02    0.313E-02
RMM:  21    -0.106909056659E+04   -0.74887E-03   -0.55100E-03  2845   0.384E-02    0.432E-02
RMM:  22    -0.106908985262E+04    0.71397E-03   -0.19614E-03  2172   0.346E-02    0.587E-02
RMM:  23    -0.106908988096E+04   -0.28333E-04   -0.59055E-04  1920   0.102E-02    0.490E-02
RMM:  24    -0.106908988543E+04   -0.44709E-05   -0.82932E-05  1826   0.112E-02
  13 F= -.10690513E+04 E0= -.10690085E+04  d E =-.280242E-02  mag=    15.9384
       N       E                     dE             d eps       ncg     rms          rms(c)
DAV:   1    -0.106908984395E+04    0.37006E-04   -0.78954E-04  3072   0.124E-02    0.462E-02
RMM:   2    -0.106909048726E+04   -0.64331E-03   -0.37360E-03  3014   0.490E-02    0.670E-02
RMM:   3    -0.106909068095E+04   -0.19370E-03   -0.14728E-03  2331   0.177E-02    0.104E-01
RMM:   4    -0.106909082546E+04   -0.14451E-03   -0.16984E-04  2050   0.152E-02    0.647E-02
RMM:   5    -0.106909088523E+04   -0.59770E-04   -0.11309E-04  1868   0.801E-03    0.614E-02
RMM:   6    -0.106908972460E+04    0.11606E-02   -0.56028E-03  2682   0.546E-02    0.138E-01
RMM:   7    -0.106908887517E+04    0.84943E-03   -0.14387E-02  3288   0.586E-02    0.761E-02
RMM:   8    -0.106908828676E+04    0.58841E-03   -0.14024E-03  2414   0.294E-02    0.750E-02
RMM:   9    -0.106908769519E+04    0.59156E-03   -0.46362E-03  2755   0.348E-02    0.581E-02
RMM:  10    -0.106908707505E+04    0.62014E-03   -0.15339E-03  2480   0.315E-02    0.680E-02
RMM:  11    -0.106908718537E+04   -0.11032E-03   -0.35971E-04  2050   0.109E-02    0.579E-02
RMM:  12    -0.106908871010E+04   -0.15247E-02   -0.10491E-01  3464   0.224E-01    0.703E-02
RMM:  13    -0.106909138190E+04   -0.26718E-02   -0.23087E-02  2514   0.486E-02    0.540E-02
RMM:  14    -0.106909184924E+04   -0.46733E-03   -0.25894E-03  2407   0.529E-02    0.350E-02
RMM:  15    -0.106909227270E+04   -0.42346E-03   -0.24329E-03  2456   0.228E-02    0.450E-02
RMM:  16    -0.106909237974E+04   -0.10704E-03   -0.10322E-04  1964   0.109E-02    0.432E-02
RMM:  17    -0.106909256926E+04   -0.18952E-03   -0.24782E-04  1999   0.128E-02    0.401E-02
RMM:  18    -0.106909285702E+04   -0.28776E-03   -0.87840E-04  2161   0.173E-02    0.436E-02
RMM:  19    -0.106909313267E+04   -0.27565E-03   -0.52914E-04  2322   0.172E-02    0.388E-02
RMM:  20    -0.106909333752E+04   -0.20485E-03   -0.58499E-04  2070   0.127E-02    0.434E-02
RMM:  21    -0.106909340492E+04   -0.67404E-04   -0.52222E-05  1822   0.738E-03    0.430E-02
RMM:  22    -0.106909339343E+04    0.11488E-04   -0.96928E-06  1640   0.465E-03    0.445E-02
RMM:  23    -0.106909343291E+04   -0.39474E-04   -0.99266E-06  1590   0.425E-03    0.441E-02
RMM:  24    -0.106909354752E+04   -0.11462E-03   -0.86610E-05  1757   0.644E-03    0.420E-02
RMM:  25    -0.106909374188E+04   -0.19436E-03   -0.31885E-04  1905   0.108E-02    0.393E-02
RMM:  26    -0.106909424273E+04   -0.50085E-03   -0.20864E-03  2269   0.282E-02    0.303E-02
RMM:  27    -0.106909465074E+04   -0.40800E-03   -0.25816E-03  2451   0.218E-02    0.444E-02
RMM:  28    -0.106909454964E+04    0.10109E-03   -0.56574E-05  1800   0.991E-03    0.470E-02
RMM:  29    -0.106909471879E+04   -0.16915E-03   -0.96140E-05  1820   0.101E-02    0.427E-02
RMM:  30    -0.106909490693E+04   -0.18813E-03   -0.31017E-04  2051   0.114E-02    0.410E-02
RMM:  31    -0.106909504716E+04   -0.14023E-03   -0.32493E-04  1910   0.973E-03    0.447E-02
RMM:  32    -0.106909513337E+04   -0.86208E-04   -0.61459E-05  1856   0.705E-03    0.439E-02
RMM:  33    -0.106909499630E+04    0.13707E-03   -0.60565E-05  1708   0.807E-03    0.479E-02
RMM:  34    -0.106909521933E+04   -0.22303E-03   -0.17578E-04  1821   0.114E-02    0.419E-02
RMM:  35    -0.106909565213E+04   -0.43281E-03   -0.14120E-03  2225   0.235E-02    0.335E-02
RMM:  36    -0.106909626354E+04   -0.61140E-03   -0.40340E-03  2601   0.307E-02    0.449E-02
RMM:  37    -0.106909607420E+04    0.18934E-03   -0.16972E-04  1957   0.143E-02    0.496E-02
RMM:  38    -0.106909604809E+04    0.26108E-04   -0.90097E-05  1742   0.567E-03    0.467E-02
RMM:  39    -0.106909609578E+04   -0.47689E-04   -0.11798E-05  1581   0.398E-03    0.453E-02
RMM:  40    -0.106909655600E+04   -0.46023E-03   -0.12552E-03  2083   0.244E-02    0.342E-02
RMM:  41    -0.106909725581E+04   -0.69980E-03   -0.51293E-03  2644   0.419E-02    0.224E-02
RMM:  42    -0.106909768386E+04   -0.42805E-03   -0.34987E-03  2409   0.227E-02    0.448E-02
RMM:  43    -0.106909768360E+04    0.25926E-06   -0.29442E-05  1845   0.814E-03
  14 F= -.10690591E+04 E0= -.10690162E+04  d E =-.776072E-02  mag=    15.9370
       N       E                     dE             d eps       ncg     rms          rms(c)
DAV:   1    -0.106909770090E+04   -0.17039E-04   -0.72287E-04  3232   0.145E-02    0.471E-02
RMM:   2    -0.106909834134E+04   -0.64044E-03   -0.37042E-03  3131   0.501E-02    0.794E-02
RMM:   3    -0.106909850647E+04   -0.16514E-03   -0.13780E-03  2371   0.177E-02    0.906E-02
RMM:   4    -0.106909868532E+04   -0.17885E-03   -0.30755E-04  2063   0.160E-02    0.674E-02
RMM:   5    -0.106909875490E+04   -0.69585E-04   -0.17583E-04  1937   0.882E-03    0.585E-02
RMM:   6    -0.106909797888E+04    0.77602E-03   -0.28858E-03  2382   0.396E-02    0.142E-01
RMM:   7    -0.106909602496E+04    0.19539E-02   -0.16764E-02  3096   0.801E-02    0.111E-01
RMM:   8    -0.106909689841E+04   -0.87345E-03   -0.27554E-03  2469   0.217E-02    0.990E-02
RMM:   9    -0.106909854563E+04   -0.16472E-02   -0.36052E-02  3200   0.131E-01    0.471E-02
RMM:  10    -0.106909958976E+04   -0.10441E-02   -0.10463E-02  2281   0.293E-02    0.474E-02
RMM:  11    -0.106910002602E+04   -0.43626E-03   -0.12441E-03  2234   0.323E-02    0.377E-02
RMM:  12    -0.106910026482E+04   -0.23880E-03   -0.11802E-03  2381   0.169E-02    0.462E-02
RMM:  13    -0.106910044710E+04   -0.18228E-03   -0.18887E-04  1990   0.135E-02    0.420E-02
RMM:  14    -0.106910040760E+04    0.39502E-04   -0.35633E-05  1717   0.678E-03    0.459E-02
RMM:  15    -0.106910042112E+04   -0.13522E-04   -0.65203E-06  1653   0.478E-03    0.461E-02
RMM:  16    -0.106910039480E+04    0.26319E-04   -0.50262E-06  1634   0.411E-03    0.460E-02
RMM:  17    -0.106910057758E+04   -0.18279E-03   -0.15576E-04  1840   0.106E-02    0.408E-02
RMM:  18    -0.106910082438E+04   -0.24679E-03   -0.55689E-04  2140   0.138E-02    0.385E-02
RMM:  19    -0.106910101539E+04   -0.19101E-03   -0.59645E-04  1951   0.117E-02    0.434E-02
RMM:  20    -0.106910126859E+04   -0.25320E-03   -0.39245E-04  2121   0.143E-02    0.390E-02
RMM:  21    -0.106910139662E+04   -0.12803E-03   -0.33991E-04  1946   0.952E-03    0.439E-02
RMM:  22    -0.106910145043E+04   -0.53815E-04   -0.25225E-05  1708   0.585E-03    0.434E-02
RMM:  23    -0.106910144288E+04    0.75530E-05   -0.59735E-06  1617   0.383E-03
  15 F= -.10690628E+04 E0= -.10690199E+04  d E =-.374284E-02  mag=    15.9364
       N       E                     dE             d eps       ncg     rms          rms(c)
DAV:   1    -0.106910140291E+04    0.47524E-04   -0.71073E-04  3008   0.122E-02    0.470E-02
RMM:   2    -0.106910205343E+04   -0.65052E-03   -0.36841E-03  3125   0.493E-02    0.130E-01
RMM:   3    -0.106910215053E+04   -0.97104E-04   -0.11729E-03  2261   0.173E-02    0.650E-02
RMM:   4    -0.106910228700E+04   -0.13646E-03   -0.37775E-04  1966   0.176E-02    0.581E-02
RMM:   5    -0.106910236654E+04   -0.79547E-04   -0.19582E-04  1919   0.874E-03    0.564E-02
RMM:   6    -0.106910173838E+04    0.62817E-03   -0.21805E-03  2312   0.354E-02    0.166E-01
RMM:   7    -0.106910008863E+04    0.16498E-02   -0.13089E-02  3086   0.727E-02    0.127E-01
RMM:   8    -0.106910015206E+04   -0.63432E-04   -0.82073E-03  2607   0.320E-02    0.103E-01
RMM:   9    -0.106909937869E+04    0.77337E-03   -0.21171E-03  2747   0.369E-02    0.650E-02
RMM:  10    -0.106909918671E+04    0.19198E-03   -0.19650E-03  2515   0.214E-02    0.507E-02
RMM:  11    -0.106909828147E+04    0.90524E-03   -0.31111E-03  2546   0.411E-02    0.685E-02
RMM:  12    -0.106909786081E+04    0.42066E-03   -0.49327E-03  2718   0.329E-02    0.520E-02
RMM:  13    -0.106909724691E+04    0.61390E-03   -0.15728E-03  2510   0.309E-02    0.603E-02
RMM:  14    -0.106909664363E+04    0.60328E-03   -0.51919E-03  2829   0.366E-02    0.451E-02
RMM:  15    -0.106909504122E+04    0.16024E-02   -0.84049E-03  2836   0.646E-02    0.730E-02
RMM:  16    -0.106909628312E+04   -0.12419E-02   -0.18226E-03  2410   0.463E-02    0.391E-02
RMM:  17    -0.106909786971E+04   -0.15866E-02   -0.34316E-02  3116   0.125E-01    0.222E-02
RMM:  18    -0.106909930146E+04   -0.14317E-02   -0.16706E-02  2626   0.396E-02    0.461E-02
RMM:  19    -0.106909955330E+04   -0.25184E-03   -0.53451E-04  2309   0.211E-02    0.378E-02
RMM:  20    -0.106910029352E+04   -0.74022E-03   -0.48943E-03  2527   0.459E-02    0.213E-02
RMM:  21    -0.106910160970E+04   -0.13162E-02   -0.15939E-02  3172   0.604E-02    0.433E-02
RMM:  22    -0.106910268178E+04   -0.10721E-02   -0.95669E-03  2892   0.677E-02    0.141E-02
RMM:  23    -0.106910341636E+04   -0.73458E-03   -0.73995E-03  2712   0.322E-02    0.439E-02
RMM:  24    -0.106910373997E+04   -0.32361E-03   -0.65526E-04  2321   0.219E-02    0.364E-02
RMM:  25    -0.106910359949E+04    0.14048E-03   -0.74417E-05  1953   0.133E-02    0.437E-02
RMM:  26    -0.106910358061E+04    0.18879E-04   -0.32371E-05  1744   0.599E-03    0.451E-02
RMM:  27    -0.106910313425E+04    0.44636E-03   -0.85752E-04  2000   0.220E-02    0.548E-02
RMM:  28    -0.106910304245E+04    0.91799E-04   -0.62156E-04  2075   0.100E-02    0.455E-02
RMM:  29    -0.106910301334E+04    0.29104E-04   -0.81167E-06  1564   0.459E-03    0.453E-02
RMM:  30    -0.106910306009E+04   -0.46743E-04   -0.10082E-05  1507   0.435E-03    0.438E-02
RMM:  31    -0.106910397661E+04   -0.91652E-03   -0.59469E-03  2485   0.531E-02    0.190E-02
RMM:  32    -0.106910407745E+04   -0.10084E-03   -0.13627E-03  2122   0.142E-02    0.440E-02
RMM:  33    -0.106910419015E+04   -0.11270E-03   -0.14428E-04  1824   0.122E-02    0.398E-02
RMM:  34    -0.106910422180E+04   -0.31648E-04   -0.76516E-05  1763   0.561E-03    0.428E-02
RMM:  35    -0.106910427596E+04   -0.54159E-04   -0.22658E-05  1717   0.591E-03    0.420E-02
RMM:  36    -0.106910429996E+04   -0.24004E-04   -0.18254E-05  1659   0.389E-03    0.431E-02
RMM:  37    -0.106910418557E+04    0.11439E-03   -0.59327E-05  1715   0.629E-03    0.459E-02
RMM:  38    -0.106910390540E+04    0.28018E-03   -0.46895E-04  1924   0.134E-02    0.505E-02
RMM:  39    -0.106910400624E+04   -0.10084E-03   -0.38932E-05  1596   0.550E-03    0.454E-02
RMM:  40    -0.106910397833E+04    0.27912E-04   -0.30791E-05  1373   0.295E-03    0.436E-02
RMM:  41    -0.106910400201E+04   -0.23689E-04   -0.37793E-06  1361   0.288E-03    0.428E-02
RMM:  42    -0.106910418269E+04   -0.18067E-03   -0.17727E-04  1771   0.902E-03    0.384E-02
RMM:  43    -0.106910476984E+04   -0.58715E-03   -0.26358E-03  2370   0.321E-02    0.265E-02
RMM:  44    -0.106910483044E+04   -0.60603E-04   -0.76609E-04  1906   0.103E-02    0.417E-02
RMM:  45    -0.106910486588E+04   -0.35433E-04   -0.31524E-05  1747   0.798E-03    0.416E-02
RMM:  46    -0.106910486485E+04    0.10237E-05   -0.74813E-06  1636   0.392E-03
  16 F= -.10690662E+04 E0= -.10690233E+04  d E =-.339562E-02  mag=    15.9360
