<?xml version="1.0" encoding="ISO-8859-1"?>
<modeling>
 <generator>
  <i name="program" type="string">vasp </i>
  <i name="version" type="string">5.4.4.18Apr17-6-g9f103f2a35  </i>
  <i name="subversion" type="string">(build Dec 31 2018 11:41:54) complex            parallel </i>
  <i name="platform" type="string">LinuxIFC </i>
  <i name="date" type="string">2022 11 03 </i>
  <i name="time" type="string">10:47:27 </i>
 </generator>
 <incar>
  <i type="string" name="SYSTEM"> CeO2</i>
  <i type="int" name="ISTART">     0</i>
  <i type="string" name="PREC">normal</i>
  <i type="string" name="ALGO"> Fast</i>
  <i type="int" name="NSIM">     4</i>
  <i type="int" name="ISPIN">     2</i>
  <i type="int" name="NELM">   300</i>
  <i type="int" name="IBRION">     3</i>
  <i name="EDIFF">      0.00001000</i>
  <i type="int" name="NSW">    16</i>
  <i type="int" name="ISIF">     2</i>
  <i name="ENCUT">    500.00000000</i>
  <i name="POTIM">      0.00000000</i>
  <i type="string" name="LREAL"> Auto</i>
  <i type="int" name="ISMEAR">     0</i>
  <i name="SIGMA">      0.10000000</i>
  <i type="logical" name="LCORR"> T  </i>
  <i type="int" name="LMAXMIX">     6</i>
  <i type="logical" name="LBEEFENS"> T  </i>
  <v type="int" name="KPOINT_BSE">    -1     0     0     0</v>
  <i type="int" name="NELM">   300</i>
  <i type="string" name="GGA">BF</i>
  <i type="logical" name="LUSE_VDW"> T  </i>
  <i name="Zab_VDW">     -1.88670000</i>
  <i type="logical" name="LDAU"> T  </i>
  <v type="int" name="LDAUTYPE">     2</v>
  <v type="int" name="LDAUL">     3    -1    -1    -1    -1</v>
  <v name="LDAUU">      5.00000000      0.00000000      0.00000000      0.00000000      0.00000000</v>
  <v name="LDAUJ">      0.00000000      0.00000000      0.00000000      0.00000000      0.00000000</v>
  <i type="int" name="IDIPOL">     3</i>
 </incar>
 <structure name="primitive_cell" >
  <crystal>
   <varray name="basis" >
    <v>      15.52620029       0.00000000       0.00000000 </v>
    <v>      -7.76321928      13.44600078       0.00000000 </v>
    <v>       0.00000000       0.00000000      22.92320061 </v>
   </varray>
   <i name="volume">   4785.56888143 </i>
   <varray name="rec_basis" >
    <v>       0.06440726       0.03718635       0.00000000 </v>
    <v>       0.00000000       0.07437156       0.00000000 </v>
    <v>       0.00000000       0.00000000       0.04362393 </v>
   </varray>
  </crystal>
  <varray name="positions" >
   <v>       0.00000000       0.00000000       0.03457000 </v>
   <v>      -0.16665978      -0.08332974       0.06913001 </v>
   <v>      -0.08332977      -0.16665980       0.00000000 </v>
   <v>       0.08334004       0.16667004       0.06913001 </v>
   <v>       0.08334021      -0.08332974       0.06913001 </v>
   <v>       0.16667002       0.08334002       0.00000000 </v>
   <v>      -0.08332994       0.08334002       0.00000000 </v>
   <v>       0.00063670      -0.00014049       0.13892472 </v>
   <v>       0.00001006       0.25000006       0.03457000 </v>
   <v>      -0.24999981      -0.24999981       0.03457000 </v>
   <v>       0.25000006       0.25000006       0.03457000 </v>
   <v>      -0.24999999       0.00000000       0.03457000 </v>
   <v>       0.25000000       0.00000000       0.03457000 </v>
   <v>       0.00001017      -0.24999981       0.03457000 </v>
   <v>       0.08430370      -0.08277924       0.17443293 </v>
   <v>       0.08350226       0.16580038       0.17508027 </v>
   <v>      -0.16717105      -0.08480744       0.17480457 </v>
   <v>       0.24951523       0.00004536       0.13760581 </v>
   <v>       0.24883034       0.24956677       0.13802640 </v>
   <v>      -0.24943465      -0.25023678       0.13754129 </v>
   <v>       0.00031342      -0.24973931       0.13753888 </v>
   <v>      -0.16665984      -0.33332980       0.06913001 </v>
   <v>      -0.16665996       0.16667004       0.06913001 </v>
   <v>      -0.33332977      -0.16665980       0.00000000 </v>
   <v>       0.16667019      -0.16665980       0.00000000 </v>
   <v>       0.33334003       0.16667004       0.06913001 </v>
   <v>       0.16667007       0.33334008       0.00000000 </v>
   <v>      -0.00164191       0.24892696       0.13925249 </v>
   <v>      -0.24948980       0.00073021       0.13961238 </v>
   <v>      -0.08240109       0.08056344       0.21150317 </v>
   <v>      -0.08379616      -0.16868929       0.20968811 </v>
   <v>       0.17014793       0.08478168       0.21052673 </v>
   <v>      -0.16348464      -0.33197455       0.17217608 </v>
   <v>       0.33283322       0.16525852       0.17451123 </v>
   <v>      -0.16644046       0.16676733       0.17453092 </v>
   <v>      -0.41592975      -0.08316976       0.06934000 </v>
   <v>      -0.41665985      -0.33332980       0.06913001 </v>
   <v>      -0.33332983      -0.41665986       0.00000000 </v>
   <v>      -0.08332982      -0.41665986       0.00000000 </v>
   <v>       0.08334009       0.41667010       0.06913001 </v>
   <v>       0.33334009       0.41667010       0.06913001 </v>
   <v>       0.08334015      -0.33332980       0.06913001 </v>
   <v>       0.41667002       0.08334002       0.00000000 </v>
   <v>       0.41667008       0.33334008       0.00000000 </v>
   <v>      -0.33332994       0.08334002       0.00000000 </v>
   <v>       0.33334021      -0.08332974       0.06913001 </v>
   <v>      -0.08332988       0.33334008       0.00000000 </v>
   <v>       0.16417783       0.33196504       0.20954266 </v>
   <v>       0.16625620      -0.16659016       0.20908630 </v>
   <v>      -0.33482805      -0.17056444       0.20887208 </v>
   <v>       0.07905502      -0.08704724       0.27904089 </v>
   <v>      -0.16626267      -0.08957097       0.28023600 </v>
   <v>       0.08499943       0.16982618       0.28175726 </v>
   <v>       0.33078081       0.41576216       0.17204554 </v>
   <v>      -0.41677505      -0.33277916       0.17226575 </v>
   <v>      -0.49998981      -0.24999981       0.03457000 </v>
   <v>      -0.24999987      -0.49999987       0.03457000 </v>
   <v>       0.25000012      -0.49999987       0.03457000 </v>
   <v>       0.25000018      -0.24999981       0.03457000 </v>
   <v>      -0.24999993       0.25000006       0.03457000 </v>
   <v>      -0.49998992       0.25000006       0.03457000 </v>
   <v>       0.33345263      -0.08358888       0.17265274 </v>
   <v>       0.08381463      -0.33314973       0.17424317 </v>
   <v>      -0.41731930      -0.08415175       0.17446466 </v>
   <v>       0.08293863       0.41737387       0.17464321 </v>
   <v>      -0.07672030      -0.16209672       0.31572189 </v>
   <v>      -0.08520091       0.08131589       0.31509320 </v>
   <v>       0.16507065       0.07791697       0.32039183 </v>
   <v>       0.24753619       0.49831040       0.13745344 </v>
   <v>      -0.16371879       0.16717400       0.27650604 </v>
   <v>      -0.32952908      -0.41695160       0.20704742 </v>
   <v>       0.41640535       0.33337524       0.20616424 </v>
   <v>      -0.49932079      -0.24920081       0.13714668 </v>
   <v>       0.24905079      -0.25016772       0.13738700 </v>
   <v>      -0.24895757      -0.49997012       0.13734081 </v>
   <v>       0.41560084       0.08261119       0.20773324 </v>
   <v>      -0.24957201       0.25032816       0.13909061 </v>
   <v>      -0.49925784       0.25024814       0.13818342 </v>
   <v>      -0.08224688      -0.41432650       0.21014174 </v>
   <v>      -0.16720373      -0.33330440       0.28071025 </v>
   <v>      -0.08239049       0.33630164       0.21141631 </v>
   <v>      -0.33473874       0.08458779       0.21178660 </v>
   <v>      -0.01007536      -0.00753582       0.35407767 </v>
   <v>       0.34186889       0.17268057       0.28661467 </v>
   <v>      -0.49999988      -0.49999987       0.03457000 </v>
   <v>       0.00000011      -0.49999987       0.03457000 </v>
   <v>      -0.49999999       0.00000000       0.03457000 </v>
   <v>       0.15700967       0.32868083       0.31542635 </v>
   <v>       0.16717251      -0.16713610       0.31637159 </v>
   <v>      -0.33261613      -0.16375796       0.31713578 </v>
   <v>      -0.49849556       0.00121979       0.13798717 </v>
   <v>      -0.49905106      -0.49996167       0.13779418 </v>
   <v>      -0.00120759       0.49982489       0.13789577 </v>
   <v>       0.32756059       0.41531686       0.27812884 </v>
   <v>      -0.41665990       0.41667010       0.06913001 </v>
   <v>       0.41667014      -0.41665986       0.00000000 </v>
   <v>      -0.16665990       0.41667010       0.06913001 </v>
   <v>      -0.41665996       0.16667004       0.06913001 </v>
   <v>       0.16667013      -0.41665986       0.00000000 </v>
   <v>       0.41667019      -0.16665980       0.00000000 </v>
   <v>       0.33251908      -0.08858008       0.27563941 </v>
   <v>       0.08179094      -0.33194996       0.28008214 </v>
   <v>      -0.42007039      -0.08554089       0.27814129 </v>
   <v>       0.08547302       0.41528394       0.28206454 </v>
   <v>      -0.24497853       0.00897178       0.35076206 </v>
   <v>      -0.41894508      -0.34606837       0.28067735 </v>
   <v>      -0.00225306       0.24885971       0.35223671 </v>
   <v>      -0.00202948      -0.25136980       0.35268015 </v>
   <v>       0.24175301      -0.01722257       0.35512682 </v>
   <v>      -0.32457632      -0.41153810       0.30705901 </v>
   <v>       0.40903626       0.33409016       0.30922191 </v>
   <v>      -0.25836012      -0.26276070       0.36837920 </v>
   <v>       0.24763052       0.26120817       0.37048521 </v>
   <v>      -0.16590850       0.41784006       0.17367725 </v>
   <v>      -0.41678590       0.41571044       0.17262731 </v>
   <v>      -0.41727013       0.16666842       0.17534503 </v>
   <v>      -0.33277202       0.08268615       0.31487089 </v>
   <v>       0.40988508       0.06769226       0.31514060 </v>
   <v>      -0.08329747       0.33254892       0.31558778 </v>
   <v>      -0.07532464      -0.41248247       0.31640353 </v>
   <v>       0.41528950      -0.41573935       0.20370636 </v>
   <v>       0.41664186      -0.16681456       0.20699144 </v>
   <v>       0.33334015      -0.33332980       0.06913001 </v>
   <v>      -0.33332989       0.33334008       0.00000000 </v>
   <v>       0.16448685      -0.41742913       0.20859264 </v>
   <v>       0.33148375      -0.33225934       0.17276586 </v>
   <v>      -0.16412243       0.42386467       0.27950915 </v>
   <v>      -0.33330262       0.33558453       0.20920121 </v>
   <v>      -0.23994774       0.24850658       0.35152651 </v>
   <v>      -0.41824847       0.16966829       0.28428333 </v>
   <v>      -0.41853555       0.42217179       0.28569388 </v>
   <v>       0.25555490      -0.23930688       0.35442538 </v>
   <v>       0.24990309       0.48970178       0.37042096 </v>
   <v>      -0.25538270      -0.49530539       0.36824713 </v>
   <v>       0.49439518      -0.24955098       0.36513585 </v>
   <v>       0.40998950      -0.41399739       0.30669790 </v>
   <v>       0.41475528      -0.16456980       0.31547488 </v>
   <v>       0.16496579      -0.41328343       0.32046910 </v>
   <v>      -0.34591019      -0.33398945       0.42733121 </v>
   <v>       0.32140113       0.32690843       0.43356102 </v>
   <v>       0.33390574      -0.32867782       0.27826334 </v>
   <v>      -0.49675656      -0.00814217       0.35349821 </v>
   <v>      -0.00934119       0.49906852       0.35411870 </v>
   <v>      -0.32171748       0.33635817       0.31443469 </v>
   <v>      -0.49573281      -0.32344779       0.42318583 </v>
   <v>       0.33402239       0.49003574       0.42659926 </v>
   <v>      -0.35054326       0.48738553       0.42108521 </v>
   <v>      -0.47617735      -0.35630546      -0.37565391 </v>
   <v>      -0.40137773      -0.24126595      -0.41383465 </v>
   <v>       0.49926760      -0.48185086       0.42381691 </v>
   <v>       0.36771466       0.32994382       0.49864567 </v>
   <v>       0.49093869       0.37488305       0.46211529 </v>
   <v>      -0.47216418      -0.31123723      -0.41315401 </v>
   <v>       0.46493435      -0.29797122      -0.41343759 </v>
   <v>      -0.40168363      -0.46731016      -0.49441739 </v>
   <v>       0.40973964       0.45129434      -0.48988864 </v>
   <v>      -0.48257294      -0.37698232      -0.48565263 </v>
  </varray>
 </structure>
 <varray name="primitive_index" >
  <v type="int" >        1 </v>
  <v type="int" >      137 </v>
  <v type="int" >      123 </v>
  <v type="int" >       61 </v>
  <v type="int" >      117 </v>
  <v type="int" >       58 </v>
  <v type="int" >       79 </v>
  <v type="int" >       50 </v>
  <v type="int" >        4 </v>
  <v type="int" >       43 </v>
  <v type="int" >        7 </v>
  <v type="int" >       22 </v>
  <v type="int" >       10 </v>
  <v type="int" >       28 </v>
  <v type="int" >       32 </v>
  <v type="int" >       11 </v>
  <v type="int" >       41 </v>
  <v type="int" >       53 </v>
  <v type="int" >       56 </v>
  <v type="int" >      127 </v>
  <v type="int" >      106 </v>
  <v type="int" >      135 </v>
  <v type="int" >       88 </v>
  <v type="int" >      120 </v>
  <v type="int" >       96 </v>
  <v type="int" >       64 </v>
  <v type="int" >       49 </v>
  <v type="int" >       59 </v>
  <v type="int" >       77 </v>
  <v type="int" >       94 </v>
  <v type="int" >      133 </v>
  <v type="int" >       68 </v>
  <v type="int" >       38 </v>
  <v type="int" >        2 </v>
  <v type="int" >       14 </v>
  <v type="int" >      140 </v>
  <v type="int" >      132 </v>
  <v type="int" >      129 </v>
  <v type="int" >      126 </v>
  <v type="int" >       70 </v>
  <v type="int" >       67 </v>
  <v type="int" >      108 </v>
  <v type="int" >       55 </v>
  <v type="int" >       52 </v>
  <v type="int" >       82 </v>
  <v type="int" >      114 </v>
  <v type="int" >       76 </v>
  <v type="int" >       65 </v>
  <v type="int" >      112 </v>
  <v type="int" >      136 </v>
  <v type="int" >      104 </v>
  <v type="int" >      131 </v>
  <v type="int" >       54 </v>
  <v type="int" >        5 </v>
  <v type="int" >       47 </v>
  <v type="int" >       40 </v>
  <v type="int" >       46 </v>
  <v type="int" >       34 </v>
  <v type="int" >       31 </v>
  <v type="int" >       19 </v>
  <v type="int" >       16 </v>
  <v type="int" >       29 </v>
  <v type="int" >       35 </v>
  <v type="int" >       44 </v>
  <v type="int" >        8 </v>
  <v type="int" >       48 </v>
  <v type="int" >       21 </v>
  <v type="int" >        6 </v>
  <v type="int" >      100 </v>
  <v type="int" >       75 </v>
  <v type="int" >      138 </v>
  <v type="int" >       62 </v>
  <v type="int" >      130 </v>
  <v type="int" >      103 </v>
  <v type="int" >      124 </v>
  <v type="int" >       71 </v>
  <v type="int" >       80 </v>
  <v type="int" >       83 </v>
  <v type="int" >      139 </v>
  <v type="int" >      122 </v>
  <v type="int" >       86 </v>
  <v type="int" >       92 </v>
  <v type="int" >       66 </v>
  <v type="int" >       51 </v>
  <v type="int" >       37 </v>
  <v type="int" >       25 </v>
  <v type="int" >       13 </v>
  <v type="int" >        3 </v>
  <v type="int" >       27 </v>
  <v type="int" >       39 </v>
  <v type="int" >       74 </v>
  <v type="int" >      121 </v>
  <v type="int" >       97 </v>
  <v type="int" >       60 </v>
  <v type="int" >       93 </v>
  <v type="int" >      102 </v>
  <v type="int" >       91 </v>
  <v type="int" >       85 </v>
  <v type="int" >      105 </v>
  <v type="int" >       99 </v>
  <v type="int" >      107 </v>
  <v type="int" >      101 </v>
  <v type="int" >      128 </v>
  <v type="int" >       57 </v>
  <v type="int" >       87 </v>
  <v type="int" >      125 </v>
  <v type="int" >       69 </v>
  <v type="int" >      116 </v>
  <v type="int" >       63 </v>
  <v type="int" >       42 </v>
  <v type="int" >       12 </v>
  <v type="int" >      141 </v>
  <v type="int" >       72 </v>
  <v type="int" >       17 </v>
  <v type="int" >       20 </v>
  <v type="int" >       23 </v>
  <v type="int" >       18 </v>
  <v type="int" >        9 </v>
  <v type="int" >       24 </v>
  <v type="int" >       45 </v>
  <v type="int" >      118 </v>
  <v type="int" >      109 </v>
  <v type="int" >      111 </v>
  <v type="int" >       73 </v>
  <v type="int" >      115 </v>
  <v type="int" >       26 </v>
  <v type="int" >       84 </v>
  <v type="int" >       89 </v>
  <v type="int" >       95 </v>
  <v type="int" >       78 </v>
  <v type="int" >       81 </v>
  <v type="int" >      119 </v>
  <v type="int" >      110 </v>
  <v type="int" >      134 </v>
  <v type="int" >      142 </v>
  <v type="int" >       33 </v>
  <v type="int" >       36 </v>
  <v type="int" >       30 </v>
  <v type="int" >      144 </v>
  <v type="int" >      152 </v>
  <v type="int" >       98 </v>
  <v type="int" >       90 </v>
  <v type="int" >      113 </v>
  <v type="int" >       15 </v>
  <v type="int" >      143 </v>
  <v type="int" >      150 </v>
  <v type="int" >      147 </v>
  <v type="int" >      156 </v>
  <v type="int" >      155 </v>
  <v type="int" >      146 </v>
  <v type="int" >      157 </v>
  <v type="int" >      148 </v>
  <v type="int" >      153 </v>
  <v type="int" >      154 </v>
  <v type="int" >      149 </v>
  <v type="int" >      151 </v>
  <v type="int" >      145 </v>
 </varray>
 <kpoints>
  <varray name="kpointlist" >
   <v>       0.00000000       0.00000000       0.00000000 </v>
  </varray>
  <varray name="weights" >
   <v>       1.00000000 </v>
  </varray>
 </kpoints>
 <parameters>
  <separator name="general" >
   <i type="string" name="SYSTEM">CeO2</i>
   <i type="logical" name="LCOMPAT"> F  </i>
  </separator>
  <separator name="electronic" >
   <i type="string" name="PREC">normal</i>
   <i name="ENMAX">    500.00000000</i>
   <i name="ENAUG">    644.87300000</i>
   <i name="EDIFF">      0.00001000</i>
   <i type="int" name="IALGO">    68</i>
   <i type="int" name="IWAVPR">    11</i>
   <i type="int" name="NBANDS">   832</i>
   <i name="NELECT">   1248.00000000</i>
   <i type="int" name="TURBO">     0</i>
   <i type="int" name="IRESTART">     0</i>
   <i type="int" name="NREBOOT">     0</i>
   <i type="int" name="NMIN">     0</i>
   <i name="EREF">      0.00000000</i>
   <separator name="electronic smearing" >
    <i type="int" name="ISMEAR">     0</i>
    <i name="SIGMA">      0.10000000</i>
    <i name="KSPACING">      0.50000000</i>
    <i type="logical" name="KGAMMA"> T  </i>
   </separator>
   <separator name="electronic projectors" >
    <i type="logical" name="LREAL"> T  </i>
    <v name="ROPT">     -0.00050000     -0.00050000     -0.00050000     -0.00050000     -0.00050000</v>
    <i type="int" name="LMAXPAW">  -100</i>
    <i type="int" name="LMAXMIX">     6</i>
    <i type="logical" name="NLSPLINE"> F  </i>
   </separator>
   <separator name="electronic startup" >
    <i type="int" name="ISTART">     0</i>
    <i type="int" name="ICHARG">     2</i>
    <i type="int" name="INIWAV">     1</i>
   </separator>
   <separator name="electronic spin" >
    <i type="int" name="ISPIN">     2</i>
    <i type="logical" name="LNONCOLLINEAR"> F  </i>
    <v name="MAGMOM">      1.00000000      1.00000000      1.00000000      1.00000000      1.00000000      1.00000000      1.00000000      1.00000000      1.00000000      1.00000000      1.00000000      1.00000000      1.00000000      1.00000000      1.00000000      1.00000000      1.00000000      1.00000000      1.00000000      1.00000000
      1.00000000      1.00000000      1.00000000      1.00000000      1.00000000      1.00000000      1.00000000      1.00000000      1.00000000      1.00000000      1.00000000      1.00000000      1.00000000      1.00000000      1.00000000      1.00000000      1.00000000      1.00000000      1.00000000      1.00000000
      1.00000000      1.00000000      1.00000000      1.00000000      1.00000000      1.00000000      1.00000000      1.00000000      1.00000000      1.00000000      1.00000000      1.00000000      1.00000000      1.00000000      1.00000000      1.00000000      1.00000000      1.00000000      1.00000000      1.00000000
      1.00000000      1.00000000      1.00000000      1.00000000      1.00000000      1.00000000      1.00000000      1.00000000      1.00000000      1.00000000      1.00000000      1.00000000      1.00000000      1.00000000      1.00000000      1.00000000      1.00000000      1.00000000      1.00000000      1.00000000
      1.00000000      1.00000000      1.00000000      1.00000000      1.00000000      1.00000000      1.00000000      1.00000000      1.00000000      1.00000000      1.00000000      1.00000000      1.00000000      1.00000000      1.00000000      1.00000000      1.00000000      1.00000000      1.00000000      1.00000000
      1.00000000      1.00000000      1.00000000      1.00000000      1.00000000      1.00000000      1.00000000      1.00000000      1.00000000      1.00000000      1.00000000      1.00000000      1.00000000      1.00000000      1.00000000      1.00000000      1.00000000      1.00000000      1.00000000      1.00000000
      1.00000000      1.00000000      1.00000000      1.00000000      1.00000000      1.00000000      1.00000000      1.00000000      1.00000000      1.00000000      1.00000000      1.00000000      1.00000000      1.00000000      1.00000000      1.00000000      1.00000000      1.00000000      1.00000000      1.00000000
      1.00000000      1.00000000      1.00000000      1.00000000      1.00000000      1.00000000      1.00000000      1.00000000      1.00000000      1.00000000      1.00000000      1.00000000      1.00000000      1.00000000      1.00000000      1.00000000      1.00000000</v>
    <i name="NUPDOWN">     -1.00000000</i>
    <i type="logical" name="LSORBIT"> F  </i>
    <v name="SAXIS">      0.00000000      0.00000000      1.00000000</v>
    <i type="logical" name="LSPIRAL"> F  </i>
    <v name="QSPIRAL">      0.00000000      0.00000000      0.00000000</v>
    <i type="logical" name="LZEROZ"> F  </i>
   </separator>
   <separator name="electronic exchange-correlation" >
    <i type="logical" name="LASPH"> F  </i>
    <i type="logical" name="LMETAGGA"> F  </i>
   </separator>
   <separator name="electronic convergence" >
    <i type="int" name="NELM">   300</i>
    <i type="int" name="NELMDL">    -5</i>
    <i type="int" name="NELMIN">     2</i>
    <i name="ENINI">    500.00000000</i>
    <separator name="electronic convergence detail" >
     <i type="logical" name="LDIAG"> T  </i>
     <i type="logical" name="LSUBROT"> F  </i>
     <i name="WEIMIN">      0.00100000</i>
     <i name="EBREAK">      0.00000000</i>
     <i name="DEPER">      0.30000000</i>
     <i type="int" name="NRMM">     4</i>
     <i name="TIME">      0.40000000</i>
    </separator>
   </separator>
   <separator name="electronic mixer" >
    <i name="AMIX">      0.40000000</i>
    <i name="BMIX">      1.00000000</i>
    <i name="AMIN">      0.10000000</i>
    <i name="AMIX_MAG">      1.60000000</i>
    <i name="BMIX_MAG">      1.00000000</i>
    <separator name="electronic mixer details" >
     <i type="int" name="IMIX">     4</i>
     <i type="logical" name="MIXFIRST"> F  </i>
     <i type="int" name="MAXMIX">   -45</i>
     <i name="WC">    100.00000000</i>
     <i type="int" name="INIMIX">     1</i>
     <i type="int" name="MIXPRE">     1</i>
     <i type="int" name="MREMOVE">     5</i>
    </separator>
   </separator>
   <separator name="electronic dipolcorrection" >
    <i type="logical" name="LDIPOL"> F  </i>
    <i type="logical" name="LMONO"> F  </i>
    <i type="int" name="IDIPOL">     3</i>
    <i name="EPSILON">      1.00000000</i>
    <v name="DIPOL">   -100.00000000   -100.00000000   -100.00000000</v>
    <i name="EFIELD">      0.00000000</i>
   </separator>
  </separator>
  <separator name="grids" >
   <i type="int" name="NGX">    90</i>
   <i type="int" name="NGY">    90</i>
   <i type="int" name="NGZ">   126</i>
   <i type="int" name="NGXF">   180</i>
   <i type="int" name="NGYF">   180</i>
   <i type="int" name="NGZF">   252</i>
   <i type="logical" name="ADDGRID"> F  </i>
  </separator>
  <separator name="ionic" >
   <i type="int" name="NSW">    16</i>
   <i type="int" name="IBRION">     3</i>
   <i type="int" name="MDALGO">     0</i>
   <i type="int" name="ISIF">     2</i>
   <i name="PSTRESS">      0.00000000</i>
   <i name="EDIFFG">      0.00010000</i>
   <i type="int" name="NFREE">     0</i>
   <i name="POTIM">      0.00000000</i>
   <i name="SMASS">     -3.00000000</i>
   <i name="SCALEE">      1.00000000</i>
  </separator>
  <separator name="ionic md" >
   <i name="TEBEG">      0.00010000</i>
   <i name="TEEND">      0.00010000</i>
   <i type="int" name="NBLOCK">     1</i>
   <i type="int" name="KBLOCK">    16</i>
   <i type="int" name="NPACO">   256</i>
   <i name="APACO">     16.00000000</i>
  </separator>
  <separator name="symmetry" >
   <i type="int" name="ISYM">     2</i>
   <i name="SYMPREC">      0.00001000</i>
  </separator>
  <separator name="dos" >
   <i type="int" name="LORBIT">     0</i>
   <v name="RWIGS">     -1.00000000     -1.00000000     -1.00000000     -1.00000000     -1.00000000</v>
   <i type="int" name="NEDOS">   301</i>
   <i name="EMIN">     10.00000000</i>
   <i name="EMAX">    -10.00000000</i>
   <i name="EFERMI">      0.00000000</i>
  </separator>
  <separator name="writing" >
   <i type="int" name="NWRITE">     2</i>
   <i type="logical" name="LWAVE"> T  </i>
   <i type="logical" name="LDOWNSAMPLE"> F  </i>
   <i type="logical" name="LCHARG"> T  </i>
   <i type="logical" name="LPARD"> F  </i>
   <i type="logical" name="LVTOT"> F  </i>
   <i type="logical" name="LVHAR"> F  </i>
   <i type="logical" name="LELF"> F  </i>
   <i type="logical" name="LOPTICS"> F  </i>
   <v name="STM">      0.00000000      0.00000000      0.00000000      0.00000000      0.00000000      0.00000000      0.00000000</v>
  </separator>
  <separator name="performance" >
   <i type="int" name="NPAR">    16</i>
   <i type="int" name="NSIM">     4</i>
   <i type="int" name="NBLK">    -1</i>
   <i type="logical" name="LPLANE"> T  </i>
   <i type="logical" name="LSCALAPACK"> T  </i>
   <i type="logical" name="LSCAAWARE"> F  </i>
   <i type="logical" name="LSCALU"> F  </i>
   <i type="logical" name="LASYNC"> F  </i>
   <i type="logical" name="LORBITALREAL"> F  </i>
  </separator>
  <separator name="miscellaneous" >
   <i type="int" name="IDIOT">     3</i>
   <i type="int" name="ISPECIAL">     0</i>
   <i type="logical" name="LMUSIC"> F  </i>
   <v name="POMASS">    140.11500000     16.00000000     58.69000000     12.01100000      1.00000000</v>
   <v name="DARWINR">      0.00000000      0.00000000      0.00000000      0.00000000      0.00000000</v>
   <v name="DARWINV">      1.00000000      1.00000000      1.00000000      1.00000000      1.00000000</v>
   <i type="logical" name="LCORR"> T  </i>
  </separator>
  <i type="logical" name="GGA_COMPAT"> T  </i>
  <i type="logical" name="LBERRY"> F  </i>
  <i type="int" name="ICORELEVEL">     0</i>
  <i type="logical" name="LDAU"> T  </i>
  <v type="int" name="LDAUTYPE">     2</v>
  <v type="int" name="LDAUL">     3</v>
  <v name="LDAUU">      5.00000000</v>
  <v name="LDAUJ">      0.00000000</v>
  <i type="int" name="LDAUPRINT">     0</i>
  <i type="int" name="I_CONSTRAINED_M">     0</i>
  <separator name="electronic exchange-correlation" >
   <i type="string" name="GGA">BF</i>
   <i type="int" name="VOSKOWN">     0</i>
   <i type="logical" name="LHFCALC"> F  </i>
   <i type="string" name="PRECFOCK"></i>
   <i type="logical" name="LSYMGRAD"> F  </i>
   <i type="logical" name="LHFONE"> F  </i>
   <i type="logical" name="LRHFCALC"> F  </i>
   <i type="logical" name="LTHOMAS"> F  </i>
   <i type="logical" name="LMODELHF"> F  </i>
   <i name="ENCUT4O">     -1.00000000</i>
   <i type="int" name="EXXOEP">     0</i>
   <i type="int" name="FOURORBIT">     0</i>
   <i name="AEXX">      0.00000000</i>
   <i name="HFALPHA">      0.00000000</i>
   <i name="MCALPHA">      0.00000000</i>
   <i name="ALDAX">      1.00000000</i>
   <i name="AGGAX">      1.00000000</i>
   <i name="ALDAC">      1.00000000</i>
   <i name="AGGAC">      1.00000000</i>
   <i type="int" name="NKREDX">     1</i>
   <i type="int" name="NKREDY">     1</i>
   <i type="int" name="NKREDZ">     1</i>
   <i type="logical" name="SHIFTRED"> F  </i>
   <i type="logical" name="ODDONLY"> F  </i>
   <i type="logical" name="EVENONLY"> F  </i>
   <i type="int" name="LMAXFOCK">     0</i>
   <i type="int" name="NMAXFOCKAE">     0</i>
   <i type="logical" name="LFOCKAEDFT"> F  </i>
   <i name="HFSCREEN">      0.00000000</i>
   <i name="HFSCREENC">      0.00000000</i>
   <i type="int" name="NBANDSGWLOW">     0</i>
  </separator>
  <separator name="vdW DFT" >
   <i type="logical" name="LUSE_VDW"> T  </i>
   <i name="Zab_VDW">     -1.88670000</i>
   <i name="PARAM1">      0.12340000</i>
   <i name="PARAM2">      1.00000000</i>
   <i name="PARAM3">      0.00000000</i>
  </separator>
  <separator name="model GW" >
   <i type="int" name="MODEL_GW">     0</i>
   <i name="MODEL_EPS0">     18.28879827</i>
   <i name="MODEL_ALPHA">      1.00000000</i>
  </separator>
  <separator name="linear response parameters" >
   <i type="logical" name="LEPSILON"> F  </i>
   <i type="logical" name="LRPA"> F  </i>
   <i type="logical" name="LNABLA"> F  </i>
   <i type="logical" name="LVEL"> F  </i>
   <i type="int" name="KINTER">     0</i>
   <i name="CSHIFT">      0.10000000</i>
   <i name="OMEGAMAX">     -1.00000000</i>
   <i name="DEG_THRESHOLD">      0.00200000</i>
   <i name="RTIME">     -0.10000000</i>
   <i name="WPLASMAI">      0.00000000</i>
   <v name="DFIELD">      0.00000000      0.00000000      0.00000000</v>
   <v name="WPLASMA">      0.00000000      0.00000000      0.00000000      0.00000000      0.00000000      0.00000000      0.00000000      0.00000000      0.00000000</v>
  </separator>
  <separator name="orbital magnetization" >
   <i type="logical" name="NUCIND"> F  </i>
   <v name="MAGPOS">      0.00000000      0.00000000      0.00000000</v>
   <i type="logical" name="LNICSALL"> T  </i>
   <i type="logical" name="ORBITALMAG"> F  </i>
   <i type="logical" name="LMAGBLOCH"> F  </i>
   <i type="logical" name="LCHIMAG"> F  </i>
   <i type="logical" name="LGAUGE"> T  </i>
   <i type="int" name="MAGATOM">     0</i>
   <v name="MAGDIPOL">      0.00000000      0.00000000      0.00000000</v>
   <v name="AVECCONST">      0.00000000      0.00000000      0.00000000</v>
  </separator>
  <separator name="response functions" >
   <i type="logical" name="LADDER"> F  </i>
   <i type="logical" name="LRPAFORCE"> F  </i>
   <i type="logical" name="LFXC"> F  </i>
   <i type="logical" name="LHARTREE"> T  </i>
   <i type="int" name="IBSE">     0</i>
   <v type="int" name="KPOINT">    -1     0     0     0</v>
   <i type="logical" name="LTCTE"> F  </i>
   <i type="logical" name="LTETE"> F  </i>
   <i type="logical" name="LTRIPLET"> F  </i>
   <i type="logical" name="LFXCEPS"> F  </i>
   <i type="logical" name="LFXHEG"> F  </i>
   <i type="int" name="NATURALO">     2</i>
   <i type="logical" name="L2ORDER"> F  </i>
   <i type="logical" name="LMP2LT"> F  </i>
   <i type="logical" name="LUSEW"> F  </i>
   <i name="ENCUTGW">     -2.00000000</i>
   <i name="ENCUTGWSOFT">     -2.00000000</i>
   <i name="ENCUTLF">     -1.00000000</i>
   <i type="int" name="LMAXMP2">    -1</i>
   <i name="SCISSOR">      0.00000000</i>
   <i type="int" name="NOMEGA">     0</i>
   <i type="int" name="NOMEGAR">     0</i>
   <i type="int" name="NBANDSGW">    -1</i>
   <i type="int" name="NBANDSO">    -1</i>
   <i type="int" name="NBANDSV">    -1</i>
   <i type="int" name="NELM">   300</i>
   <i type="int" name="NELMHF">     1</i>
   <i type="int" name="DIM">     3</i>
   <i type="int" name="ANTIRES">     0</i>
   <i name="OMEGAMAX">    -30.00000000</i>
   <i name="OMEGAMIN">    -30.00000000</i>
   <i name="OMEGATL">   -200.00000000</i>
   <i type="int" name="OMEGAGRID">   140</i>
   <i name="CSHIFT">     -0.10000000</i>
   <i type="logical" name="SELFENERGY"> F  </i>
   <i type="logical" name="LSPECTRAL"> F  </i>
   <i type="logical" name="LSPECTRALGW"> F  </i>
   <i type="logical" name="LSINGLES"> F  </i>
   <i type="logical" name="LFERMIGW"> F  </i>
   <i type="logical" name="ODDONLYGW"> F  </i>
   <i type="logical" name="EVENONLYGW"> F  </i>
   <i type="int" name="NKREDLFX">     1</i>
   <i type="int" name="NKREDLFY">     1</i>
   <i type="int" name="NKREDLFZ">     1</i>
   <i type="int" name="MAXMEM">  2800</i>
   <i type="int" name="TELESCOPE">     0</i>
   <i type="int" name="TAUPAR">     1</i>
   <i type="int" name="OMEGAPAR">    -1</i>
   <i name="LAMBDA">      1.00000000</i>
  </separator>
  <separator name="External order field" >
   <i name="OFIELD_KAPPA">      0.00000000</i>
   <v name="OFIELD_K">      0.00000000      0.00000000      0.00000000</v>
   <i name="OFIELD_Q6_NEAR">      0.00000000</i>
   <i name="OFIELD_Q6_FAR">      0.00000000</i>
   <i name="OFIELD_A">      0.00000000</i>
  </separator>
 </parameters>
 <atominfo>
  <atoms>     157 </atoms>
  <types>       5 </types>
  <array name="atoms" >
   <dimension dim="1">ion</dimension>
   <field type="string">element</field>
   <field type="int">atomtype</field>
   <set>
    <rc><c>Ce</c><c>   1</c></rc>
    <rc><c>Ce</c><c>   1</c></rc>
    <rc><c>Ce</c><c>   1</c></rc>
    <rc><c>Ce</c><c>   1</c></rc>
    <rc><c>Ce</c><c>   1</c></rc>
    <rc><c>Ce</c><c>   1</c></rc>
    <rc><c>Ce</c><c>   1</c></rc>
    <rc><c>Ce</c><c>   1</c></rc>
    <rc><c>Ce</c><c>   1</c></rc>
    <rc><c>Ce</c><c>   1</c></rc>
    <rc><c>Ce</c><c>   1</c></rc>
    <rc><c>Ce</c><c>   1</c></rc>
    <rc><c>Ce</c><c>   1</c></rc>
    <rc><c>Ce</c><c>   1</c></rc>
    <rc><c>Ce</c><c>   1</c></rc>
    <rc><c>Ce</c><c>   1</c></rc>
    <rc><c>Ce</c><c>   1</c></rc>
    <rc><c>Ce</c><c>   1</c></rc>
    <rc><c>Ce</c><c>   1</c></rc>
    <rc><c>Ce</c><c>   1</c></rc>
    <rc><c>Ce</c><c>   1</c></rc>
    <rc><c>Ce</c><c>   1</c></rc>
    <rc><c>Ce</c><c>   1</c></rc>
    <rc><c>Ce</c><c>   1</c></rc>
    <rc><c>Ce</c><c>   1</c></rc>
    <rc><c>Ce</c><c>   1</c></rc>
    <rc><c>Ce</c><c>   1</c></rc>
    <rc><c>Ce</c><c>   1</c></rc>
    <rc><c>Ce</c><c>   1</c></rc>
    <rc><c>Ce</c><c>   1</c></rc>
    <rc><c>Ce</c><c>   1</c></rc>
    <rc><c>Ce</c><c>   1</c></rc>
    <rc><c>Ce</c><c>   1</c></rc>
    <rc><c>Ce</c><c>   1</c></rc>
    <rc><c>Ce</c><c>   1</c></rc>
    <rc><c>Ce</c><c>   1</c></rc>
    <rc><c>Ce</c><c>   1</c></rc>
    <rc><c>Ce</c><c>   1</c></rc>
    <rc><c>Ce</c><c>   1</c></rc>
    <rc><c>Ce</c><c>   1</c></rc>
    <rc><c>Ce</c><c>   1</c></rc>
    <rc><c>Ce</c><c>   1</c></rc>
    <rc><c>Ce</c><c>   1</c></rc>
    <rc><c>Ce</c><c>   1</c></rc>
    <rc><c>Ce</c><c>   1</c></rc>
    <rc><c>Ce</c><c>   1</c></rc>
    <rc><c>Ce</c><c>   1</c></rc>
    <rc><c>Ce</c><c>   1</c></rc>
    <rc><c>O </c><c>   2</c></rc>
    <rc><c>O </c><c>   2</c></rc>
    <rc><c>O </c><c>   2</c></rc>
    <rc><c>O </c><c>   2</c></rc>
    <rc><c>O </c><c>   2</c></rc>
    <rc><c>O </c><c>   2</c></rc>
    <rc><c>O </c><c>   2</c></rc>
    <rc><c>O </c><c>   2</c></rc>
    <rc><c>O </c><c>   2</c></rc>
    <rc><c>O </c><c>   2</c></rc>
    <rc><c>O </c><c>   2</c></rc>
    <rc><c>O </c><c>   2</c></rc>
    <rc><c>O </c><c>   2</c></rc>
    <rc><c>O </c><c>   2</c></rc>
    <rc><c>O </c><c>   2</c></rc>
    <rc><c>O </c><c>   2</c></rc>
    <rc><c>O </c><c>   2</c></rc>
    <rc><c>O </c><c>   2</c></rc>
    <rc><c>O </c><c>   2</c></rc>
    <rc><c>O </c><c>   2</c></rc>
    <rc><c>O </c><c>   2</c></rc>
    <rc><c>O </c><c>   2</c></rc>
    <rc><c>O </c><c>   2</c></rc>
    <rc><c>O </c><c>   2</c></rc>
    <rc><c>O </c><c>   2</c></rc>
    <rc><c>O </c><c>   2</c></rc>
    <rc><c>O </c><c>   2</c></rc>
    <rc><c>O </c><c>   2</c></rc>
    <rc><c>O </c><c>   2</c></rc>
    <rc><c>O </c><c>   2</c></rc>
    <rc><c>O </c><c>   2</c></rc>
    <rc><c>O </c><c>   2</c></rc>
    <rc><c>O </c><c>   2</c></rc>
    <rc><c>O </c><c>   2</c></rc>
    <rc><c>O </c><c>   2</c></rc>
    <rc><c>O </c><c>   2</c></rc>
    <rc><c>O </c><c>   2</c></rc>
    <rc><c>O </c><c>   2</c></rc>
    <rc><c>O </c><c>   2</c></rc>
    <rc><c>O </c><c>   2</c></rc>
    <rc><c>O </c><c>   2</c></rc>
    <rc><c>O </c><c>   2</c></rc>
    <rc><c>O </c><c>   2</c></rc>
    <rc><c>O </c><c>   2</c></rc>
    <rc><c>O </c><c>   2</c></rc>
    <rc><c>O </c><c>   2</c></rc>
    <rc><c>O </c><c>   2</c></rc>
    <rc><c>O </c><c>   2</c></rc>
    <rc><c>O </c><c>   2</c></rc>
    <rc><c>O </c><c>   2</c></rc>
    <rc><c>O </c><c>   2</c></rc>
    <rc><c>O </c><c>   2</c></rc>
    <rc><c>O </c><c>   2</c></rc>
    <rc><c>O </c><c>   2</c></rc>
    <rc><c>O </c><c>   2</c></rc>
    <rc><c>O </c><c>   2</c></rc>
    <rc><c>O </c><c>   2</c></rc>
    <rc><c>O </c><c>   2</c></rc>
    <rc><c>O </c><c>   2</c></rc>
    <rc><c>O </c><c>   2</c></rc>
    <rc><c>O </c><c>   2</c></rc>
    <rc><c>O </c><c>   2</c></rc>
    <rc><c>O </c><c>   2</c></rc>
    <rc><c>O </c><c>   2</c></rc>
    <rc><c>O </c><c>   2</c></rc>
    <rc><c>O </c><c>   2</c></rc>
    <rc><c>O </c><c>   2</c></rc>
    <rc><c>O </c><c>   2</c></rc>
    <rc><c>O </c><c>   2</c></rc>
    <rc><c>O </c><c>   2</c></rc>
    <rc><c>O </c><c>   2</c></rc>
    <rc><c>O </c><c>   2</c></rc>
    <rc><c>O </c><c>   2</c></rc>
    <rc><c>O </c><c>   2</c></rc>
    <rc><c>O </c><c>   2</c></rc>
    <rc><c>O </c><c>   2</c></rc>
    <rc><c>O </c><c>   2</c></rc>
    <rc><c>O </c><c>   2</c></rc>
    <rc><c>O </c><c>   2</c></rc>
    <rc><c>O </c><c>   2</c></rc>
    <rc><c>O </c><c>   2</c></rc>
    <rc><c>O </c><c>   2</c></rc>
    <rc><c>O </c><c>   2</c></rc>
    <rc><c>O </c><c>   2</c></rc>
    <rc><c>O </c><c>   2</c></rc>
    <rc><c>O </c><c>   2</c></rc>
    <rc><c>O </c><c>   2</c></rc>
    <rc><c>O </c><c>   2</c></rc>
    <rc><c>O </c><c>   2</c></rc>
    <rc><c>O </c><c>   2</c></rc>
    <rc><c>O </c><c>   2</c></rc>
    <rc><c>O </c><c>   2</c></rc>
    <rc><c>O </c><c>   2</c></rc>
    <rc><c>O </c><c>   2</c></rc>
    <rc><c>Ni</c><c>   3</c></rc>
    <rc><c>Ni</c><c>   3</c></rc>
    <rc><c>Ni</c><c>   3</c></rc>
    <rc><c>Ni</c><c>   3</c></rc>
    <rc><c>Ni</c><c>   3</c></rc>
    <rc><c>Ni</c><c>   3</c></rc>
    <rc><c>Ni</c><c>   3</c></rc>
    <rc><c>Ni</c><c>   3</c></rc>
    <rc><c>Ni</c><c>   3</c></rc>
    <rc><c>Ni</c><c>   3</c></rc>
    <rc><c>C </c><c>   4</c></rc>
    <rc><c>H </c><c>   5</c></rc>
    <rc><c>H </c><c>   5</c></rc>
    <rc><c>H </c><c>   5</c></rc>
    <rc><c>H </c><c>   5</c></rc>
   </set>
  </array>
  <array name="atomtypes" >
   <dimension dim="1">type</dimension>
   <field type="int">atomspertype</field>
   <field type="string">element</field>
   <field>mass</field>
   <field>valence</field>
   <field type="string">pseudopotential</field>
   <set>
    <rc><c>  48</c><c>Ce</c><c>    140.11500000</c><c>     12.00000000</c><c> PAW_PBE Ce 23Dec2003                   </c></rc>
    <rc><c>  94</c><c>O </c><c>     16.00000000</c><c>      6.00000000</c><c>  PAW_PBE O 08Apr2002                   </c></rc>
    <rc><c>  10</c><c>Ni</c><c>     58.69000000</c><c>     10.00000000</c><c>  PAW_PBE Ni 02Aug2007                  </c></rc>
    <rc><c>   1</c><c>C </c><c>     12.01100000</c><c>      4.00000000</c><c> PAW_PBE C 08Apr2002                    </c></rc>
    <rc><c>   4</c><c>H </c><c>      1.00000000</c><c>      1.00000000</c><c> PAW_PBE H 15Jun2001                    </c></rc>
   </set>
  </array>
 </atominfo>
 <structure name="initialpos" >
  <crystal>
   <varray name="basis" >
    <v>      15.52620029       0.00000000       0.00000000 </v>
    <v>      -7.76321928      13.44600078       0.00000000 </v>
    <v>       0.00000000       0.00000000      22.92320061 </v>
   </varray>
   <i name="volume">   4785.56888143 </i>
   <varray name="rec_basis" >
    <v>       0.06440726       0.03718635       0.00000000 </v>
    <v>       0.00000000       0.07437156       0.00000000 </v>
    <v>       0.00000000       0.00000000       0.04362393 </v>
   </varray>
  </crystal>
  <varray name="positions" >
   <v>       0.00000000       0.00000000       0.03457000 </v>
   <v>       0.33283322       0.16525852       0.17451123 </v>
   <v>       0.15700967       0.32868083       0.31542635 </v>
   <v>       0.00001006       0.25000006       0.03457000 </v>
   <v>       0.33078081       0.41576216       0.17204554 </v>
   <v>       0.16507065       0.07791697       0.32039183 </v>
   <v>       0.25000006       0.25000006       0.03457000 </v>
   <v>       0.08293863       0.41737387       0.17464321 </v>
   <v>       0.40988508       0.06769226       0.31514060 </v>
   <v>       0.25000000       0.00000000       0.03457000 </v>
   <v>       0.08350226       0.16580038       0.17508027 </v>
   <v>       0.40903626       0.33409016       0.30922191 </v>
   <v>       0.50000001       0.00000000       0.03457000 </v>
   <v>       0.83355954       0.16676733       0.17453092 </v>
   <v>       0.67828252       0.33635817       0.31443469 </v>
   <v>       0.50001008       0.25000006       0.03457000 </v>
   <v>       0.83409150       0.41784006       0.17367725 </v>
   <v>       0.66722798       0.08268615       0.31487089 </v>
   <v>       0.75000007       0.25000006       0.03457000 </v>
   <v>       0.58321410       0.41571044       0.17262731 </v>
   <v>       0.91479909       0.08131589       0.31509320 </v>
   <v>       0.75000001       0.00000000       0.03457000 </v>
   <v>       0.58272987       0.16666842       0.17534503 </v>
   <v>       0.91670253       0.33254892       0.31558778 </v>
   <v>       0.00000011       0.50000013       0.03457000 </v>
   <v>       0.33148375       0.66774066       0.17276586 </v>
   <v>       0.16717251       0.83286390       0.31637159 </v>
   <v>       0.00001017       0.75000019       0.03457000 </v>
   <v>       0.33345263       0.91641112       0.17265274 </v>
   <v>       0.16496579       0.58671657       0.32046910 </v>
   <v>       0.25000018       0.75000019       0.03457000 </v>
   <v>       0.08430370       0.91722076       0.17443293 </v>
   <v>       0.40998950       0.58600261       0.30669790 </v>
   <v>       0.25000012       0.50000013       0.03457000 </v>
   <v>       0.08381463       0.66685027       0.17424317 </v>
   <v>       0.41475528       0.83543020       0.31547488 </v>
   <v>       0.50000012       0.50000013       0.03457000 </v>
   <v>       0.83651536       0.66802545       0.17217608 </v>
   <v>       0.66738387       0.83624204       0.31713578 </v>
   <v>       0.50001019       0.75000019       0.03457000 </v>
   <v>       0.83282895       0.91519256       0.17480457 </v>
   <v>       0.67542368       0.58846190       0.30705901 </v>
   <v>       0.75000019       0.75000019       0.03457000 </v>
   <v>       0.58268070       0.91584825       0.17446466 </v>
   <v>       0.92467536       0.58751753       0.31640353 </v>
   <v>       0.75000013       0.50000013       0.03457000 </v>
   <v>       0.58322495       0.66722084       0.17226575 </v>
   <v>       0.92327970       0.83790328       0.31572189 </v>
   <v>       0.16667007       0.33334008       0.00000000 </v>
   <v>       0.00063670       0.99985951       0.13892472 </v>
   <v>       0.34186889       0.17268057       0.28661467 </v>
   <v>       0.41667008       0.33334008       0.00000000 </v>
   <v>       0.24951523       0.00004536       0.13760581 </v>
   <v>       0.08499943       0.16982618       0.28175726 </v>
   <v>       0.41667002       0.08334002       0.00000000 </v>
   <v>       0.24883034       0.24956677       0.13802640 </v>
   <v>       0.08547302       0.41528394       0.28206454 </v>
   <v>       0.16667002       0.08334002       0.00000000 </v>
   <v>       0.99835809       0.24892696       0.13925249 </v>
   <v>       0.32756059       0.41531686       0.27812884 </v>
   <v>       0.08334004       0.16667004       0.06913001 </v>
   <v>       0.41640535       0.33337524       0.20616424 </v>
   <v>       0.24175301       0.98277743       0.35512682 </v>
   <v>       0.33334003       0.16667004       0.06913001 </v>
   <v>       0.16417783       0.33196504       0.20954266 </v>
   <v>       0.98992464       0.99246418       0.35407767 </v>
   <v>       0.33334009       0.41667010       0.06913001 </v>
   <v>       0.17014793       0.08478168       0.21052673 </v>
   <v>       0.99774694       0.24885971       0.35223671 </v>
   <v>       0.08334009       0.41667010       0.06913001 </v>
   <v>       0.41560084       0.08261119       0.20773324 </v>
   <v>       0.24763052       0.26120817       0.37048521 </v>
   <v>       0.66667011       0.33334008       0.00000000 </v>
   <v>       0.50150444       0.00121979       0.13798717 </v>
   <v>       0.83628121       0.16717400       0.27650604 </v>
   <v>       0.91667012       0.33334008       0.00000000 </v>
   <v>       0.75051020       0.00073021       0.13961238 </v>
   <v>       0.58175153       0.16966829       0.28428333 </v>
   <v>       0.91667006       0.08334002       0.00000000 </v>
   <v>       0.75042799       0.25032816       0.13909061 </v>
   <v>       0.58146445       0.42217179       0.28569388 </v>
   <v>       0.66667006       0.08334002       0.00000000 </v>
   <v>       0.50074216       0.25024814       0.13818342 </v>
   <v>       0.83587757       0.42386467       0.27950915 </v>
   <v>       0.58334004       0.16667004       0.06913001 </v>
   <v>       0.91760951       0.33630164       0.21141631 </v>
   <v>       0.75502147       0.00897178       0.35076206 </v>
   <v>       0.83334004       0.16667004       0.06913001 </v>
   <v>       0.66669738       0.33558453       0.20920121 </v>
   <v>       0.50324344       0.99185783       0.35349821 </v>
   <v>       0.83334010       0.41667010       0.06913001 </v>
   <v>       0.66526126       0.08458779       0.21178660 </v>
   <v>       0.58334010       0.41667010       0.06913001 </v>
   <v>       0.91759891       0.08056344       0.21150317 </v>
   <v>       0.76005226       0.24850658       0.35152651 </v>
   <v>       0.16667019       0.83334020       0.00000000 </v>
   <v>       0.99879241       0.49982489       0.13789577 </v>
   <v>       0.33390574       0.67132218       0.27826334 </v>
   <v>       0.41667019       0.83334020       0.00000000 </v>
   <v>       0.24753619       0.49831040       0.13745344 </v>
   <v>       0.08179094       0.66805004       0.28008214 </v>
   <v>       0.41667014       0.58334014       0.00000000 </v>
   <v>       0.24905079       0.74983228       0.13738700 </v>
   <v>       0.07905502       0.91295276       0.27904089 </v>
   <v>       0.16667013       0.58334014       0.00000000 </v>
   <v>       0.00031342       0.75026069       0.13753888 </v>
   <v>       0.33251908       0.91141992       0.27563941 </v>
   <v>       0.08334015       0.66667020       0.06913001 </v>
   <v>       0.41664186       0.83318544       0.20699144 </v>
   <v>       0.24990309       0.48970178       0.37042096 </v>
   <v>       0.33334015       0.66667020       0.06913001 </v>
   <v>       0.16625620       0.83340984       0.20908630 </v>
   <v>       0.99065881       0.49906852       0.35411870 </v>
   <v>       0.33334021       0.91667026       0.06913001 </v>
   <v>       0.16448685       0.58257087       0.20859264 </v>
   <v>       0.99797052       0.74863020       0.35268015 </v>
   <v>       0.08334021       0.91667026       0.06913001 </v>
   <v>       0.41528950       0.58426065       0.20370636 </v>
   <v>       0.25555490       0.76069312       0.35442538 </v>
   <v>       0.66667023       0.83334020       0.00000000 </v>
   <v>       0.50094894       0.50003833       0.13779418 </v>
   <v>       0.83279627       0.66669560       0.28071025 </v>
   <v>       0.91667023       0.83334020       0.00000000 </v>
   <v>       0.75104243       0.50002988       0.13734081 </v>
   <v>       0.58105492       0.65393163       0.28067735 </v>
   <v>       0.91667018       0.58334014       0.00000000 </v>
   <v>       0.75056535       0.74976322       0.13754129 </v>
   <v>       0.57992961       0.91445911       0.27814129 </v>
   <v>       0.66667017       0.58334014       0.00000000 </v>
   <v>       0.50067921       0.75079919       0.13714668 </v>
   <v>       0.83373733       0.91042903       0.28023600 </v>
   <v>       0.58334015       0.66667020       0.06913001 </v>
   <v>       0.91620384       0.83131071       0.20968811 </v>
   <v>       0.74461730       0.50469461       0.36824713 </v>
   <v>       0.83334016       0.66667020       0.06913001 </v>
   <v>       0.66517195       0.82943556       0.20887208 </v>
   <v>       0.83334022       0.91667026       0.06913001 </v>
   <v>       0.67047092       0.58304840       0.20704742 </v>
   <v>       0.91775312       0.58567350       0.21014174 </v>
   <v>       0.58407025       0.91683024       0.06934000 </v>
   <v>       0.74163988       0.73723930       0.36837920 </v>
   <v>       0.49439518       0.75044902       0.36513585 </v>
   <v>       0.50426719       0.67655221       0.42318583 </v>
   <v>       0.65408981       0.66601055       0.42733121 </v>
   <v>       0.51742706       0.62301768       0.51434737 </v>
   <v>       0.49926760       0.51814914       0.42381691 </v>
   <v>       0.64945674       0.48738553       0.42108521 </v>
   <v>       0.49093869       0.37488305       0.46211529 </v>
   <v>       0.59831637       0.53268984       0.50558261 </v>
   <v>       0.33402239       0.49003574       0.42659926 </v>
   <v>       0.40973964       0.45129434       0.51011136 </v>
   <v>       0.32140113       0.32690843       0.43356102 </v>
   <v>       0.52783582       0.68876277       0.58684599 </v>
   <v>       0.46493435       0.70202878       0.58656241 </v>
   <v>       0.59862227       0.75873405       0.58616535 </v>
   <v>       0.52382265       0.64369454       0.62434609 </v>
   <v>       0.36771466       0.32994382       0.49864567 </v>
  </varray>
  <varray name="selective"  type="logical" >
   <v type="logical" >  F  F  F </v>
   <v type="logical" >  T  T  T </v>
   <v type="logical" >  T  T  T </v>
   <v type="logical" >  F  F  F </v>
   <v type="logical" >  T  T  T </v>
   <v type="logical" >  T  T  T </v>
   <v type="logical" >  F  F  F </v>
   <v type="logical" >  T  T  T </v>
   <v type="logical" >  T  T  T </v>
   <v type="logical" >  F  F  F </v>
   <v type="logical" >  T  T  T </v>
   <v type="logical" >  T  T  T </v>
   <v type="logical" >  F  F  F </v>
   <v type="logical" >  T  T  T </v>
   <v type="logical" >  T  T  T </v>
   <v type="logical" >  F  F  F </v>
   <v type="logical" >  T  T  T </v>
   <v type="logical" >  T  T  T </v>
   <v type="logical" >  F  F  F </v>
   <v type="logical" >  T  T  T </v>
   <v type="logical" >  T  T  T </v>
   <v type="logical" >  F  F  F </v>
   <v type="logical" >  T  T  T </v>
   <v type="logical" >  T  T  T </v>
   <v type="logical" >  F  F  F </v>
   <v type="logical" >  T  T  T </v>
   <v type="logical" >  T  T  T </v>
   <v type="logical" >  F  F  F </v>
   <v type="logical" >  T  T  T </v>
   <v type="logical" >  T  T  T </v>
   <v type="logical" >  F  F  F </v>
   <v type="logical" >  T  T  T </v>
   <v type="logical" >  T  T  T </v>
   <v type="logical" >  F  F  F </v>
   <v type="logical" >  T  T  T </v>
   <v type="logical" >  T  T  T </v>
   <v type="logical" >  F  F  F </v>
   <v type="logical" >  T  T  T </v>
   <v type="logical" >  T  T  T </v>
   <v type="logical" >  F  F  F </v>
   <v type="logical" >  T  T  T </v>
   <v type="logical" >  T  T  T </v>
   <v type="logical" >  F  F  F </v>
   <v type="logical" >  T  T  T </v>
   <v type="logical" >  T  T  T </v>
   <v type="logical" >  F  F  F </v>
   <v type="logical" >  T  T  T </v>
   <v type="logical" >  T  T  T </v>
   <v type="logical" >  F  F  F </v>
   <v type="logical" >  T  T  T </v>
   <v type="logical" >  T  T  T </v>
   <v type="logical" >  F  F  F </v>
   <v type="logical" >  T  T  T </v>
   <v type="logical" >  T  T  T </v>
   <v type="logical" >  F  F  F </v>
   <v type="logical" >  T  T  T </v>
   <v type="logical" >  T  T  T </v>
   <v type="logical" >  F  F  F </v>
   <v type="logical" >  T  T  T </v>
   <v type="logical" >  T  T  T </v>
   <v type="logical" >  F  F  F </v>
   <v type="logical" >  T  T  T </v>
   <v type="logical" >  T  T  T </v>
   <v type="logical" >  F  F  F </v>
   <v type="logical" >  T  T  T </v>
   <v type="logical" >  T  T  T </v>
   <v type="logical" >  F  F  F </v>
   <v type="logical" >  T  T  T </v>
   <v type="logical" >  T  T  T </v>
   <v type="logical" >  F  F  F </v>
   <v type="logical" >  T  T  T </v>
   <v type="logical" >  T  T  T </v>
   <v type="logical" >  F  F  F </v>
   <v type="logical" >  T  T  T </v>
   <v type="logical" >  T  T  T </v>
   <v type="logical" >  F  F  F </v>
   <v type="logical" >  T  T  T </v>
   <v type="logical" >  T  T  T </v>
   <v type="logical" >  F  F  F </v>
   <v type="logical" >  T  T  T </v>
   <v type="logical" >  T  T  T </v>
   <v type="logical" >  F  F  F </v>
   <v type="logical" >  T  T  T </v>
   <v type="logical" >  T  T  T </v>
   <v type="logical" >  F  F  F </v>
   <v type="logical" >  T  T  T </v>
   <v type="logical" >  T  T  T </v>
   <v type="logical" >  F  F  F </v>
   <v type="logical" >  T  T  T </v>
   <v type="logical" >  T  T  T </v>
   <v type="logical" >  F  F  F </v>
   <v type="logical" >  T  T  T </v>
   <v type="logical" >  F  F  F </v>
   <v type="logical" >  T  T  T </v>
   <v type="logical" >  T  T  T </v>
   <v type="logical" >  F  F  F </v>
   <v type="logical" >  T  T  T </v>
   <v type="logical" >  T  T  T </v>
   <v type="logical" >  F  F  F </v>
   <v type="logical" >  T  T  T </v>
   <v type="logical" >  T  T  T </v>
   <v type="logical" >  F  F  F </v>
   <v type="logical" >  T  T  T </v>
   <v type="logical" >  T  T  T </v>
   <v type="logical" >  F  F  F </v>
   <v type="logical" >  T  T  T </v>
   <v type="logical" >  T  T  T </v>
   <v type="logical" >  F  F  F </v>
   <v type="logical" >  T  T  T </v>
   <v type="logical" >  T  T  T </v>
   <v type="logical" >  F  F  F </v>
   <v type="logical" >  T  T  T </v>
   <v type="logical" >  T  T  T </v>
   <v type="logical" >  F  F  F </v>
   <v type="logical" >  T  T  T </v>
   <v type="logical" >  T  T  T </v>
   <v type="logical" >  F  F  F </v>
   <v type="logical" >  T  T  T </v>
   <v type="logical" >  T  T  T </v>
   <v type="logical" >  F  F  F </v>
   <v type="logical" >  T  T  T </v>
   <v type="logical" >  T  T  T </v>
   <v type="logical" >  F  F  F </v>
   <v type="logical" >  T  T  T </v>
   <v type="logical" >  T  T  T </v>
   <v type="logical" >  F  F  F </v>
   <v type="logical" >  T  T  T </v>
   <v type="logical" >  T  T  T </v>
   <v type="logical" >  F  F  F </v>
   <v type="logical" >  T  T  T </v>
   <v type="logical" >  T  T  T </v>
   <v type="logical" >  F  F  F </v>
   <v type="logical" >  T  T  T </v>
   <v type="logical" >  T  T  T </v>
   <v type="logical" >  F  F  F </v>
   <v type="logical" >  T  T  T </v>
   <v type="logical" >  F  F  F </v>
   <v type="logical" >  T  T  T </v>
   <v type="logical" >  T  T  T </v>
   <v type="logical" >  F  F  F </v>
   <v type="logical" >  T  T  T </v>
   <v type="logical" >  T  T  T </v>
   <v type="logical" >  T  T  T </v>
   <v type="logical" >  T  T  T </v>
   <v type="logical" >  T  T  T </v>
   <v type="logical" >  T  T  T </v>
   <v type="logical" >  T  T  T </v>
   <v type="logical" >  T  T  T </v>
   <v type="logical" >  T  T  T </v>
   <v type="logical" >  T  T  T </v>
   <v type="logical" >  T  T  T </v>
   <v type="logical" >  T  T  T </v>
   <v type="logical" >  T  T  T </v>
   <v type="logical" >  T  T  T </v>
   <v type="logical" >  T  T  T </v>
   <v type="logical" >  T  T  T </v>
   <v type="logical" >  T  T  T </v>
  </varray>
  <nose>
   <v>      -3.00000000       0.00000000       0.00010000       0.00010000 </v>
  </nose>
 </structure>
 <calculation>
  <scstep>
   <time name="dav">  113.12  113.41</time>
   <time name="total">  133.75  141.37</time>
   <energy>
    <i name="alphaZ">   2903.95512433 </i>
    <i name="ewald"> 280861.00389320 </i>
    <i name="hartreedc">-374735.98729442 </i>
    <i name="XCdc">   3192.42651213 </i>
    <i name="pawpsdc">  69181.55908056 </i>
    <i name="pawaedc"> -68772.82405124 </i>
    <i name="eentropy">     -0.20968142 </i>
    <i name="bandstr">   4219.17964074 </i>
    <i name="atom"> 103351.39234774 </i>
    <i name="e_fr_energy">  20200.49557163 </i>
    <i name="e_wo_entrp">  20200.70525305 </i>
    <i name="e_0_energy">  20200.60041234 </i>
   </energy>
  </scstep>
  <scstep>
   <time name="dav">  122.94  123.27</time>
   <time name="total">  122.94  123.27</time>
   <energy>
    <i name="e_fr_energy">   7441.34895520 </i>
    <i name="e_wo_entrp">   7442.38675043 </i>
    <i name="e_0_energy">   7441.86785282 </i>
   </energy>
  </scstep>
  <scstep>
   <time name="dav">  142.88  143.26</time>
   <time name="total">  142.88  143.26</time>
   <energy>
    <i name="e_fr_energy">    618.54475497 </i>
    <i name="e_wo_entrp">    620.24994086 </i>
    <i name="e_0_energy">    619.39734791 </i>
   </energy>
  </scstep>
  <scstep>
   <time name="dav">  148.55  148.93</time>
   <time name="total">  148.55  148.93</time>
   <energy>
    <i name="e_fr_energy">  -1184.12645345 </i>
    <i name="e_wo_entrp">  -1183.77595426 </i>
    <i name="e_0_energy">  -1183.95120386 </i>
   </energy>
  </scstep>
  <scstep>
   <time name="dav">  169.33  169.80</time>
   <time name="total">  172.84  173.32</time>
   <energy>
    <i name="e_fr_energy">  -1367.86647127 </i>
    <i name="e_wo_entrp">  -1367.47286346 </i>
    <i name="e_0_energy">  -1367.66966737 </i>
   </energy>
  </scstep>
  <scstep>
   <time name="diag">   14.57   14.60</time>
   <time name="diis">   65.46   65.64</time>
   <time name="orth">    4.37    4.38</time>
   <time name="total">  108.09  108.38</time>
   <energy>
    <i name="e_fr_energy">  -1115.61032315 </i>
    <i name="e_wo_entrp">  -1114.53721467 </i>
    <i name="e_0_energy">  -1115.07376891 </i>
   </energy>
  </scstep>
  <scstep>
   <time name="diag">   14.58   14.62</time>
   <time name="diis">   64.53   64.70</time>
   <time name="orth">    4.35    4.36</time>
   <time name="total">  107.18  107.46</time>
   <energy>
    <i name="e_fr_energy">  -1427.96227593 </i>
    <i name="e_wo_entrp">  -1427.42527895 </i>
    <i name="e_0_energy">  -1427.69377744 </i>
   </energy>
  </scstep>
  <scstep>
   <time name="diag">   14.44   14.48</time>
   <time name="diis">   55.74   55.88</time>
   <time name="orth">    4.36    4.37</time>
   <time name="total">   98.13   98.38</time>
   <energy>
    <i name="e_fr_energy">  -1088.31358209 </i>
    <i name="e_wo_entrp">  -1088.20021672 </i>
    <i name="e_0_energy">  -1088.25689940 </i>
   </energy>
  </scstep>
  <scstep>
   <time name="diag">   14.43   14.47</time>
   <time name="diis">   53.97   54.10</time>
   <time name="orth">    4.37    4.38</time>
   <time name="total">   96.57   96.81</time>
   <energy>
    <i name="e_fr_energy">   -956.15436078 </i>
    <i name="e_wo_entrp">   -955.26417014 </i>
    <i name="e_0_energy">   -955.70926546 </i>
   </energy>
  </scstep>
  <scstep>
   <time name="diag">   14.52   14.56</time>
   <time name="diis">   53.88   54.01</time>
   <time name="orth">    4.46    4.47</time>
   <time name="total">   96.42   96.66</time>
   <energy>
    <i name="e_fr_energy">   -961.02950938 </i>
    <i name="e_wo_entrp">   -960.97567667 </i>
    <i name="e_0_energy">   -961.00259303 </i>
   </energy>
  </scstep>
  <scstep>
   <time name="diag">   14.52   14.56</time>
   <time name="diis">   53.68   53.81</time>
   <time name="orth">    4.33    4.34</time>
   <time name="total">   95.94   96.18</time>
   <energy>
    <i name="e_fr_energy">   -846.74193412 </i>
    <i name="e_wo_entrp">   -846.44165155 </i>
    <i name="e_0_energy">   -846.59179283 </i>
   </energy>
  </scstep>
  <scstep>
   <time name="diag">   14.41   14.44</time>
   <time name="diis">   58.57   58.71</time>
   <time name="orth">    4.36    4.37</time>
   <time name="total">  101.02  101.27</time>
   <energy>
    <i name="e_fr_energy">   -795.18527940 </i>
    <i name="e_wo_entrp">   -795.00135317 </i>
    <i name="e_0_energy">   -795.09331628 </i>
   </energy>
  </scstep>
  <scstep>
   <time name="diag">   14.32   14.35</time>
   <time name="diis">   61.75   61.90</time>
   <time name="orth">    4.43    4.44</time>
   <time name="total">  104.25  104.51</time>
   <energy>
    <i name="e_fr_energy">   -775.94260660 </i>
    <i name="e_wo_entrp">   -775.60326037 </i>
    <i name="e_0_energy">   -775.77293349 </i>
   </energy>
  </scstep>
  <scstep>
   <time name="diag">   14.52   14.56</time>
   <time name="diis">   59.26   59.41</time>
   <time name="orth">    4.34    4.35</time>
   <time name="total">  101.77  102.02</time>
   <energy>
    <i name="e_fr_energy">   -763.70561637 </i>
    <i name="e_wo_entrp">   -763.44658959 </i>
    <i name="e_0_energy">   -763.57610298 </i>
   </energy>
  </scstep>
  <scstep>
   <time name="diag">   14.38   14.41</time>
   <time name="diis">   53.97   54.11</time>
   <time name="orth">    4.40    4.41</time>
   <time name="total">   96.38   96.62</time>
   <energy>
    <i name="e_fr_energy">   -747.49398813 </i>
    <i name="e_wo_entrp">   -747.21275661 </i>
    <i name="e_0_energy">   -747.35337237 </i>
   </energy>
  </scstep>
  <scstep>
   <time name="diag">   14.36   14.40</time>
   <time name="diis">   56.67   56.82</time>
   <time name="orth">    4.45    4.46</time>
   <time name="total">   99.14   99.41</time>
   <energy>
    <i name="e_fr_energy">   -747.95665675 </i>
    <i name="e_wo_entrp">   -747.51649732 </i>
    <i name="e_0_energy">   -747.73657704 </i>
   </energy>
  </scstep>
  <scstep>
   <time name="diag">   14.39   14.43</time>
   <time name="diis">   56.39   56.52</time>
   <time name="orth">    4.39    4.40</time>
   <time name="total">   98.64   98.89</time>
   <energy>
    <i name="e_fr_energy">   -753.33310883 </i>
    <i name="e_wo_entrp">   -752.98240358 </i>
    <i name="e_0_energy">   -753.15775621 </i>
   </energy>
  </scstep>
  <scstep>
   <time name="diag">   14.40   14.43</time>
   <time name="diis">   56.34   56.47</time>
   <time name="orth">    4.33    4.34</time>
   <time name="total">   98.62   98.87</time>
   <energy>
    <i name="e_fr_energy">   -758.95268546 </i>
    <i name="e_wo_entrp">   -758.68716498 </i>
    <i name="e_0_energy">   -758.81992522 </i>
   </energy>
  </scstep>
  <scstep>
   <time name="diag">   14.34   14.37</time>
   <time name="diis">   53.64   53.84</time>
   <time name="orth">    4.33    4.35</time>
   <time name="total">   95.88   96.19</time>
   <energy>
    <i name="e_fr_energy">   -772.08883716 </i>
    <i name="e_wo_entrp">   -771.81756461 </i>
    <i name="e_0_energy">   -771.95320088 </i>
   </energy>
  </scstep>
  <scstep>
   <time name="diag">   14.40   14.43</time>
   <time name="diis">   54.04   54.17</time>
   <time name="orth">    4.37    4.38</time>
   <time name="total">   96.34   96.58</time>
   <energy>
    <i name="e_fr_energy">   -780.01722091 </i>
    <i name="e_wo_entrp">   -779.78857264 </i>
    <i name="e_0_energy">   -779.90289678 </i>
   </energy>
  </scstep>
  <scstep>
   <time name="diag">   14.36   14.39</time>
   <time name="diis">   51.27   51.39</time>
   <time name="orth">    4.33    4.34</time>
   <time name="total">   93.40   93.63</time>
   <energy>
    <i name="e_fr_energy">   -797.90495456 </i>
    <i name="e_wo_entrp">   -797.69844672 </i>
    <i name="e_0_energy">   -797.80170064 </i>
   </energy>
  </scstep>
  <scstep>
   <time name="diag">   14.43   14.47</time>
   <time name="diis">   52.53   52.66</time>
   <time name="orth">    4.29    4.30</time>
   <time name="total">   94.77   95.01</time>
   <energy>
    <i name="e_fr_energy">   -827.29402355 </i>
    <i name="e_wo_entrp">   -827.08350943 </i>
    <i name="e_0_energy">   -827.18876649 </i>
   </energy>
  </scstep>
  <scstep>
   <time name="diag">   14.32   14.36</time>
   <time name="diis">   54.80   54.95</time>
   <time name="orth">    4.30    4.31</time>
   <time name="total">   97.11   97.37</time>
   <energy>
    <i name="e_fr_energy">   -859.98284154 </i>
    <i name="e_wo_entrp">   -859.64213584 </i>
    <i name="e_0_energy">   -859.81248869 </i>
   </energy>
  </scstep>
  <scstep>
   <time name="diag">   14.30   14.34</time>
   <time name="diis">   55.33   55.47</time>
   <time name="orth">    4.31    4.32</time>
   <time name="total">   97.60   97.84</time>
   <energy>
    <i name="e_fr_energy">   -868.87382775 </i>
    <i name="e_wo_entrp">   -868.53523495 </i>
    <i name="e_0_energy">   -868.70453135 </i>
   </energy>
  </scstep>
  <scstep>
   <time name="diag">   14.37   14.40</time>
   <time name="diis">   63.64   63.80</time>
   <time name="orth">    4.28    4.29</time>
   <time name="total">  105.86  106.13</time>
   <energy>
    <i name="e_fr_energy">   -870.09873601 </i>
    <i name="e_wo_entrp">   -869.77497908 </i>
    <i name="e_0_energy">   -869.93685755 </i>
   </energy>
  </scstep>
  <scstep>
   <time name="diag">   14.20   14.23</time>
   <time name="diis">   70.13   70.30</time>
   <time name="orth">    4.42    4.43</time>
   <time name="total">  112.47  112.75</time>
   <energy>
    <i name="e_fr_energy">   -869.14077089 </i>
    <i name="e_wo_entrp">   -868.77680639 </i>
    <i name="e_0_energy">   -868.95878864 </i>
   </energy>
  </scstep>
  <scstep>
   <time name="diag">   14.39   14.42</time>
   <time name="diis">   55.70   55.83</time>
   <time name="orth">    4.36    4.37</time>
   <time name="total">   98.20   98.44</time>
   <energy>
    <i name="e_fr_energy">   -876.15992123 </i>
    <i name="e_wo_entrp">   -875.80043770 </i>
    <i name="e_0_energy">   -875.98017946 </i>
   </energy>
  </scstep>
  <scstep>
   <time name="diag">   14.22   14.26</time>
   <time name="diis">   62.37   62.52</time>
   <time name="orth">    4.34    4.35</time>
   <time name="total">  104.81  105.08</time>
   <energy>
    <i name="e_fr_energy">   -876.52333157 </i>
    <i name="e_wo_entrp">   -876.06324192 </i>
    <i name="e_0_energy">   -876.29328674 </i>
   </energy>
  </scstep>
  <scstep>
   <time name="diag">   14.26   14.30</time>
   <time name="diis">   72.30   72.47</time>
   <time name="orth">    4.32    4.33</time>
   <time name="total">  114.60  114.88</time>
   <energy>
    <i name="e_fr_energy">   -876.59655215 </i>
    <i name="e_wo_entrp">   -876.10320135 </i>
    <i name="e_0_energy">   -876.34987675 </i>
   </energy>
  </scstep>
  <scstep>
   <time name="diag">   14.29   14.33</time>
   <time name="diis">   68.77   68.94</time>
   <time name="orth">    4.35    4.36</time>
   <time name="total">  111.21  111.49</time>
   <energy>
    <i name="e_fr_energy">   -876.65482349 </i>
    <i name="e_wo_entrp">   -876.14278252 </i>
    <i name="e_0_energy">   -876.39880301 </i>
   </energy>
  </scstep>
  <scstep>
   <time name="diag">   14.25   14.29</time>
   <time name="diis">   68.40   68.57</time>
   <time name="orth">    4.35    4.36</time>
   <time name="total">  110.89  111.17</time>
   <energy>
    <i name="e_fr_energy">   -877.35199834 </i>
    <i name="e_wo_entrp">   -876.88095032 </i>
    <i name="e_0_energy">   -877.11647433 </i>
   </energy>
  </scstep>
  <scstep>
   <time name="diag">   14.39   14.42</time>
   <time name="diis">   55.10   55.23</time>
   <time name="orth">    4.36    4.38</time>
   <time name="total">   97.64   97.88</time>
   <energy>
    <i name="e_fr_energy">   -877.50212942 </i>
    <i name="e_wo_entrp">   -877.03070215 </i>
    <i name="e_0_energy">   -877.26641578 </i>
   </energy>
  </scstep>
  <scstep>
   <time name="diag">   14.18   14.22</time>
   <time name="diis">   54.17   54.30</time>
   <time name="orth">    4.28    4.29</time>
   <time name="total">   96.53   96.77</time>
   <energy>
    <i name="e_fr_energy">   -878.89356397 </i>
    <i name="e_wo_entrp">   -878.49871540 </i>
    <i name="e_0_energy">   -878.69613969 </i>
   </energy>
  </scstep>
  <scstep>
   <time name="diag">   14.26   14.29</time>
   <time name="diis">   51.07   51.19</time>
   <time name="orth">    4.28    4.29</time>
   <time name="total">   93.53   93.75</time>
   <energy>
    <i name="e_fr_energy">   -879.02242924 </i>
    <i name="e_wo_entrp">   -878.64241897 </i>
    <i name="e_0_energy">   -878.83242410 </i>
   </energy>
  </scstep>
  <scstep>
   <time name="diag">   14.26   14.29</time>
   <time name="diis">   50.87   51.00</time>
   <time name="orth">    4.29    4.30</time>
   <time name="total">   93.29   93.52</time>
   <energy>
    <i name="e_fr_energy">   -879.16323396 </i>
    <i name="e_wo_entrp">   -878.77521669 </i>
    <i name="e_0_energy">   -878.96922532 </i>
   </energy>
  </scstep>
  <scstep>
   <time name="diag">   14.39   14.43</time>
   <time name="diis">   50.04   50.16</time>
   <time name="orth">    4.36    4.37</time>
   <time name="total">   92.54   92.77</time>
   <energy>
    <i name="e_fr_energy">   -879.48685279 </i>
    <i name="e_wo_entrp">   -879.13183009 </i>
    <i name="e_0_energy">   -879.30934144 </i>
   </energy>
  </scstep>
  <scstep>
   <time name="diag">   14.32   14.36</time>
   <time name="diis">   52.70   52.85</time>
   <time name="orth">    4.27    4.28</time>
   <time name="total">   95.05   95.30</time>
   <energy>
    <i name="e_fr_energy">   -879.56298311 </i>
    <i name="e_wo_entrp">   -879.21353968 </i>
    <i name="e_0_energy">   -879.38826140 </i>
   </energy>
  </scstep>
  <scstep>
   <time name="diag">   14.36   14.39</time>
   <time name="diis">   54.12   54.25</time>
   <time name="orth">    4.29    4.30</time>
   <time name="total">   96.56   96.80</time>
   <energy>
    <i name="e_fr_energy">   -879.28503098 </i>
    <i name="e_wo_entrp">   -878.95083627 </i>
    <i name="e_0_energy">   -879.11793363 </i>
   </energy>
  </scstep>
  <scstep>
   <time name="diag">   14.26   14.30</time>
   <time name="diis">   55.40   55.53</time>
   <time name="orth">    4.25    4.27</time>
   <time name="total">   97.78   98.02</time>
   <energy>
    <i name="e_fr_energy">   -879.41251411 </i>
    <i name="e_wo_entrp">   -879.05766545 </i>
    <i name="e_0_energy">   -879.23508978 </i>
   </energy>
  </scstep>
  <scstep>
   <time name="diag">   14.22   14.25</time>
   <time name="diis">   57.70   57.84</time>
   <time name="orth">    4.35    4.36</time>
   <time name="total">  100.14  100.39</time>
   <energy>
    <i name="e_fr_energy">   -879.61070185 </i>
    <i name="e_wo_entrp">   -879.29017906 </i>
    <i name="e_0_energy">   -879.45044045 </i>
   </energy>
  </scstep>
  <scstep>
   <time name="diag">   14.24   14.29</time>
   <time name="diis">   52.05   52.17</time>
   <time name="orth">    4.27    4.28</time>
   <time name="total">   94.30   94.55</time>
   <energy>
    <i name="e_fr_energy">   -879.89648573 </i>
    <i name="e_wo_entrp">   -879.59376803 </i>
    <i name="e_0_energy">   -879.74512688 </i>
   </energy>
  </scstep>
  <scstep>
   <time name="diag">   14.39   14.42</time>
   <time name="diis">   51.76   51.89</time>
   <time name="orth">    4.22    4.23</time>
   <time name="total">   94.20   94.44</time>
   <energy>
    <i name="e_fr_energy">   -879.94340325 </i>
    <i name="e_wo_entrp">   -879.62850188 </i>
    <i name="e_0_energy">   -879.78595256 </i>
   </energy>
  </scstep>
  <scstep>
   <time name="diag">   14.32   14.36</time>
   <time name="diis">   50.73   50.85</time>
   <time name="orth">    4.28    4.29</time>
   <time name="total">   93.25   93.49</time>
   <energy>
    <i name="e_fr_energy">   -879.96108325 </i>
    <i name="e_wo_entrp">   -879.65142779 </i>
    <i name="e_0_energy">   -879.80625552 </i>
   </energy>
  </scstep>
  <scstep>
   <time name="diag">   14.18   14.21</time>
   <time name="diis">   50.51   50.65</time>
   <time name="orth">    4.28    4.29</time>
   <time name="total">   92.88   93.13</time>
   <energy>
    <i name="e_fr_energy">   -882.35475066 </i>
    <i name="e_wo_entrp">   -882.03363010 </i>
    <i name="e_0_energy">   -882.19419038 </i>
   </energy>
  </scstep>
  <scstep>
   <time name="diag">   14.18   14.22</time>
   <time name="diis">   50.44   50.59</time>
   <time name="orth">    4.28    4.30</time>
   <time name="total">   92.82   93.09</time>
   <energy>
    <i name="e_fr_energy">   -882.17002131 </i>
    <i name="e_wo_entrp">   -881.85411512 </i>
    <i name="e_0_energy">   -882.01206821 </i>
   </energy>
  </scstep>
  <scstep>
   <time name="diag">   14.25   14.28</time>
   <time name="diis">   48.51   48.66</time>
   <time name="orth">    4.31    4.32</time>
   <time name="total">   90.99   91.27</time>
   <energy>
    <i name="e_fr_energy">   -882.22440468 </i>
    <i name="e_wo_entrp">   -881.88044765 </i>
    <i name="e_0_energy">   -882.05242616 </i>
   </energy>
  </scstep>
  <scstep>
   <time name="diag">   14.25   14.29</time>
   <time name="diis">   50.84   50.99</time>
   <time name="orth">    4.33    4.34</time>
   <time name="total">   93.38   93.66</time>
   <energy>
    <i name="e_fr_energy">   -883.15479898 </i>
    <i name="e_wo_entrp">   -882.83972526 </i>
    <i name="e_0_energy">   -882.99726212 </i>
   </energy>
  </scstep>
  <scstep>
   <time name="diag">   14.21   14.24</time>
   <time name="diis">   53.69   53.83</time>
   <time name="orth">    4.34    4.36</time>
   <time name="total">   96.21   96.46</time>
   <energy>
    <i name="e_fr_energy">   -882.93658429 </i>
    <i name="e_wo_entrp">   -882.62273642 </i>
    <i name="e_0_energy">   -882.77966036 </i>
   </energy>
  </scstep>
  <scstep>
   <time name="diag">   14.17   14.20</time>
   <time name="diis">   55.60   55.76</time>
   <time name="orth">    4.33    4.34</time>
   <time name="total">   97.94   98.22</time>
   <energy>
    <i name="e_fr_energy">   -883.00894058 </i>
    <i name="e_wo_entrp">   -882.69760196 </i>
    <i name="e_0_energy">   -882.85327127 </i>
   </energy>
  </scstep>
  <scstep>
   <time name="diag">   14.14   14.18</time>
   <time name="diis">   51.63   51.75</time>
   <time name="orth">    4.29    4.30</time>
   <time name="total">   93.96   94.20</time>
   <energy>
    <i name="e_fr_energy">   -882.89121942 </i>
    <i name="e_wo_entrp">   -882.57908946 </i>
    <i name="e_0_energy">   -882.73515444 </i>
   </energy>
  </scstep>
  <scstep>
   <time name="diag">   14.22   14.26</time>
   <time name="diis">   49.47   49.60</time>
   <time name="orth">    4.26    4.27</time>
   <time name="total">   91.72   91.96</time>
   <energy>
    <i name="e_fr_energy">   -882.53967042 </i>
    <i name="e_wo_entrp">   -882.21323176 </i>
    <i name="e_0_energy">   -882.37645109 </i>
   </energy>
  </scstep>
  <scstep>
   <time name="diag">   14.09   14.13</time>
   <time name="diis">   52.50   52.63</time>
   <time name="orth">    4.26    4.27</time>
   <time name="total">   94.63   94.86</time>
   <energy>
    <i name="e_fr_energy">   -890.73607255 </i>
    <i name="e_wo_entrp">   -890.54165942 </i>
    <i name="e_0_energy">   -890.63886598 </i>
   </energy>
  </scstep>
  <scstep>
   <time name="diag">   14.20   14.24</time>
   <time name="diis">   53.09   53.22</time>
   <time name="orth">    4.30    4.31</time>
   <time name="total">   95.38   95.61</time>
   <energy>
    <i name="e_fr_energy">   -903.05099913 </i>
    <i name="e_wo_entrp">   -902.78871489 </i>
    <i name="e_0_energy">   -902.91985701 </i>
   </energy>
  </scstep>
  <scstep>
   <time name="diag">   14.24   14.28</time>
   <time name="diis">   55.52   55.66</time>
   <time name="orth">    4.31    4.32</time>
   <time name="total">   97.84   98.10</time>
   <energy>
    <i name="e_fr_energy">   -916.13028408 </i>
    <i name="e_wo_entrp">   -915.67195108 </i>
    <i name="e_0_energy">   -915.90111758 </i>
   </energy>
  </scstep>
  <scstep>
   <time name="diag">   14.16   14.19</time>
   <time name="diis">   59.51   59.65</time>
   <time name="orth">    4.28    4.29</time>
   <time name="total">  101.66  101.91</time>
   <energy>
    <i name="e_fr_energy">   -921.06868999 </i>
    <i name="e_wo_entrp">   -920.73181057 </i>
    <i name="e_0_energy">   -920.90025028 </i>
   </energy>
  </scstep>
  <scstep>
   <time name="diag">   14.10   14.13</time>
   <time name="diis">   53.68   53.81</time>
   <time name="orth">    4.28    4.29</time>
   <time name="total">   95.76   96.00</time>
   <energy>
    <i name="e_fr_energy">   -921.11634902 </i>
    <i name="e_wo_entrp">   -920.71150453 </i>
    <i name="e_0_energy">   -920.91392678 </i>
   </energy>
  </scstep>
  <scstep>
   <time name="diag">   14.13   14.16</time>
   <time name="diis">   51.61   51.73</time>
   <time name="orth">    4.27    4.28</time>
   <time name="total">   93.71   93.94</time>
   <energy>
    <i name="e_fr_energy">   -930.32450941 </i>
    <i name="e_wo_entrp">   -929.93114965 </i>
    <i name="e_0_energy">   -930.12782953 </i>
   </energy>
  </scstep>
  <scstep>
   <time name="diag">   14.16   14.19</time>
   <time name="diis">   55.56   55.69</time>
   <time name="orth">    4.24    4.26</time>
   <time name="total">   97.62   97.88</time>
   <energy>
    <i name="e_fr_energy">   -934.68201521 </i>
    <i name="e_wo_entrp">   -934.34698246 </i>
    <i name="e_0_energy">   -934.51449883 </i>
   </energy>
  </scstep>
  <scstep>
   <time name="diag">   14.11   14.14</time>
   <time name="diis">   50.35   50.47</time>
   <time name="orth">    4.31    4.32</time>
   <time name="total">   92.44   92.67</time>
   <energy>
    <i name="e_fr_energy">   -944.18739114 </i>
    <i name="e_wo_entrp">   -943.88881840 </i>
    <i name="e_0_energy">   -944.03810477 </i>
   </energy>
  </scstep>
  <scstep>
   <time name="diag">   14.18   14.21</time>
   <time name="diis">   54.98   55.11</time>
   <time name="orth">    4.25    4.26</time>
   <time name="total">   97.08   97.32</time>
   <energy>
    <i name="e_fr_energy">   -952.78419894 </i>
    <i name="e_wo_entrp">   -952.47274333 </i>
    <i name="e_0_energy">   -952.62847114 </i>
   </energy>
  </scstep>
  <scstep>
   <time name="diag">   14.12   14.15</time>
   <time name="diis">   51.39   51.52</time>
   <time name="orth">    4.25    4.26</time>
   <time name="total">   93.47   93.70</time>
   <energy>
    <i name="e_fr_energy">   -963.37351066 </i>
    <i name="e_wo_entrp">   -963.23342722 </i>
    <i name="e_0_energy">   -963.30346894 </i>
   </energy>
  </scstep>
  <scstep>
   <time name="diag">   14.10   14.14</time>
   <time name="diis">   52.64   52.79</time>
   <time name="orth">    4.28    4.29</time>
   <time name="total">   94.72   94.97</time>
   <energy>
    <i name="e_fr_energy">   -961.90954835 </i>
    <i name="e_wo_entrp">   -961.70243121 </i>
    <i name="e_0_energy">   -961.80598978 </i>
   </energy>
  </scstep>
  <scstep>
   <time name="diag">   14.08   14.12</time>
   <time name="diis">   52.77   52.90</time>
   <time name="orth">    4.24    4.25</time>
   <time name="total">   94.81   95.05</time>
   <energy>
    <i name="e_fr_energy">   -971.56136703 </i>
    <i name="e_wo_entrp">   -971.40347611 </i>
    <i name="e_0_energy">   -971.48242157 </i>
   </energy>
  </scstep>
  <scstep>
   <time name="diag">   14.19   14.22</time>
   <time name="diis">   57.47   57.61</time>
   <time name="orth">    4.23    4.24</time>
   <time name="total">   99.55   99.81</time>
   <energy>
    <i name="e_fr_energy">   -983.60736119 </i>
    <i name="e_wo_entrp">   -983.45207846 </i>
    <i name="e_0_energy">   -983.52971982 </i>
   </energy>
  </scstep>
  <scstep>
   <time name="diag">   14.08   14.11</time>
   <time name="diis">   58.22   58.36</time>
   <time name="orth">    4.21    4.22</time>
[...]
       <r>    -6.1217     0.0000   288.0000 </r>
       <r>    -5.9887     0.0000   288.0000 </r>
       <r>    -5.8558     0.0001   288.0000 </r>
       <r>    -5.7228     0.0737   288.0098 </r>
       <r>    -5.5898     2.3726   288.3252 </r>
       <r>    -5.4569     4.9062   288.9775 </r>
       <r>    -5.3239     7.2992   289.9480 </r>
       <r>    -5.1910     7.3658   290.9273 </r>
       <r>    -5.0580     0.5525   291.0007 </r>
       <r>    -4.9251     1.0712   291.1431 </r>
       <r>    -4.7921    13.6093   292.9525 </r>
       <r>    -4.6592    24.9180   296.2654 </r>
       <r>    -4.5262    14.7856   298.2312 </r>
       <r>    -4.3933    19.1589   300.7785 </r>
       <r>    -4.2603    52.0141   307.6938 </r>
       <r>    -4.1274    76.5522   317.8716 </r>
       <r>    -3.9944    77.1449   328.1282 </r>
       <r>    -3.8615   103.3380   341.8672 </r>
       <r>    -3.7285    94.0444   354.3707 </r>
       <r>    -3.5956    76.0072   364.4760 </r>
       <r>    -3.4626    74.2966   374.3539 </r>
       <r>    -3.3297    86.1211   385.8039 </r>
       <r>    -3.1967    96.0351   398.5720 </r>
       <r>    -3.0638    87.4335   410.1964 </r>
       <r>    -2.9308    82.1140   421.1137 </r>
       <r>    -2.7978    64.6469   429.7086 </r>
       <r>    -2.6649    60.0054   437.6865 </r>
       <r>    -2.5319    69.4374   446.9184 </r>
       <r>    -2.3990    80.5981   457.6341 </r>
       <r>    -2.2660   115.5132   472.9918 </r>
       <r>    -2.1331   112.2278   487.9127 </r>
       <r>    -2.0001   113.6191   503.0187 </r>
       <r>    -1.8672   134.1921   520.8598 </r>
       <r>    -1.7342   155.4801   541.5312 </r>
       <r>    -1.6013   121.5353   557.6896 </r>
       <r>    -1.4683   108.3220   572.0913 </r>
       <r>    -1.3354   108.5021   586.5169 </r>
       <r>    -1.2024    75.7256   596.5848 </r>
       <r>    -1.0695    20.2515   599.2773 </r>
       <r>    -0.9365    15.6291   601.3552 </r>
       <r>    -0.8036    18.0298   603.7523 </r>
       <r>    -0.6706    20.4589   606.4724 </r>
       <r>    -0.5377    25.2371   609.8277 </r>
       <r>    -0.4047    23.0399   612.8909 </r>
       <r>    -0.2718    19.0328   615.4213 </r>
       <r>    -0.1388    17.4525   617.7417 </r>
       <r>    -0.0059    17.6393   620.0869 </r>
       <r>     0.1271    16.2149   622.2427 </r>
       <r>     0.2601    11.6213   623.7878 </r>
       <r>     0.3930     6.9536   624.7123 </r>
       <r>     0.5260     2.2411   625.0102 </r>
       <r>     0.6589     8.5932   626.1527 </r>
       <r>     0.7919    78.8388   636.6345 </r>
       <r>     0.9248   273.7370   673.0285 </r>
       <r>     1.0578   453.2662   733.2912 </r>
       <r>     1.1907   496.2844   799.2734 </r>
       <r>     1.3237   229.0935   829.7319 </r>
       <r>     1.4566    16.9703   831.9881 </r>
       <r>     1.5896     0.0893   832.0000 </r>
       <r>     1.7225     0.0000   832.0000 </r>
       <r>     1.8555     0.0000   832.0000 </r>
       <r>     1.9884     0.0000   832.0000 </r>
       <r>     2.1214     0.0000   832.0000 </r>
       <r>     2.2543     0.0000   832.0000 </r>
       <r>     2.3873     0.0000   832.0000 </r>
       <r>     2.5202     0.0000   832.0000 </r>
       <r>     2.6532     0.0000   832.0000 </r>
       <r>     2.7861     0.0000   832.0000 </r>
       <r>     2.9191     0.0000   832.0000 </r>
       <r>     3.0521     0.0000   832.0000 </r>
      </set>
     </set>
    </array>
   </total>
  </dos>
 </calculation>
 <structure name="finalpos" >
  <crystal>
   <varray name="basis" >
    <v>      15.52620029       0.00000000       0.00000000 </v>
    <v>      -7.76321928      13.44600078       0.00000000 </v>
    <v>       0.00000000       0.00000000      22.92320061 </v>
   </varray>
   <i name="volume">   4785.56888143 </i>
   <varray name="rec_basis" >
    <v>       0.06440726       0.03718635       0.00000000 </v>
    <v>       0.00000000       0.07437156       0.00000000 </v>
    <v>       0.00000000       0.00000000       0.04362393 </v>
   </varray>
  </crystal>
  <varray name="positions" >
   <v>       0.00000000       0.00000000       0.03457000 </v>
   <v>       0.33283322       0.16525852       0.17451123 </v>
   <v>       0.15700967       0.32868083       0.31542635 </v>
   <v>       0.00001006       0.25000006       0.03457000 </v>
   <v>       0.33078081       0.41576216       0.17204554 </v>
   <v>       0.16507065       0.07791697       0.32039183 </v>
   <v>       0.25000006       0.25000006       0.03457000 </v>
   <v>       0.08293863       0.41737387       0.17464321 </v>
   <v>       0.40988508       0.06769226       0.31514060 </v>
   <v>       0.25000000       0.00000000       0.03457000 </v>
   <v>       0.08350226       0.16580038       0.17508027 </v>
   <v>       0.40903626       0.33409016       0.30922191 </v>
   <v>       0.50000001       0.00000000       0.03457000 </v>
   <v>       0.83355954       0.16676733       0.17453092 </v>
   <v>       0.67828252       0.33635817       0.31443469 </v>
   <v>       0.50001008       0.25000006       0.03457000 </v>
   <v>       0.83409150       0.41784006       0.17367725 </v>
   <v>       0.66722798       0.08268615       0.31487089 </v>
   <v>       0.75000007       0.25000006       0.03457000 </v>
   <v>       0.58321410       0.41571044       0.17262731 </v>
   <v>       0.91479909       0.08131589       0.31509320 </v>
   <v>       0.75000001       0.00000000       0.03457000 </v>
   <v>       0.58272987       0.16666842       0.17534503 </v>
   <v>       0.91670253       0.33254892       0.31558778 </v>
   <v>       0.00000011       0.50000013       0.03457000 </v>
   <v>       0.33148375       0.66774066       0.17276586 </v>
   <v>       0.16717251       0.83286390       0.31637159 </v>
   <v>       0.00001017       0.75000019       0.03457000 </v>
   <v>       0.33345263       0.91641112       0.17265274 </v>
   <v>       0.16496579       0.58671657       0.32046910 </v>
   <v>       0.25000018       0.75000019       0.03457000 </v>
   <v>       0.08430370       0.91722076       0.17443293 </v>
   <v>       0.40998950       0.58600261       0.30669790 </v>
   <v>       0.25000012       0.50000013       0.03457000 </v>
   <v>       0.08381463       0.66685027       0.17424317 </v>
   <v>       0.41475528       0.83543020       0.31547488 </v>
   <v>       0.50000012       0.50000013       0.03457000 </v>
   <v>       0.83651536       0.66802545       0.17217608 </v>
   <v>       0.66738387       0.83624204       0.31713578 </v>
   <v>       0.50001019       0.75000019       0.03457000 </v>
   <v>       0.83282895       0.91519256       0.17480457 </v>
   <v>       0.67542368       0.58846190       0.30705901 </v>
   <v>       0.75000019       0.75000019       0.03457000 </v>
   <v>       0.58268070       0.91584825       0.17446466 </v>
   <v>       0.92467536       0.58751753       0.31640353 </v>
   <v>       0.75000013       0.50000013       0.03457000 </v>
   <v>       0.58322495       0.66722084       0.17226575 </v>
   <v>       0.92327970       0.83790328       0.31572189 </v>
   <v>       0.16667007       0.33334008       0.00000000 </v>
   <v>       0.00063670       0.99985951       0.13892472 </v>
   <v>       0.34186889       0.17268057       0.28661467 </v>
   <v>       0.41667008       0.33334008       0.00000000 </v>
   <v>       0.24951523       0.00004536       0.13760581 </v>
   <v>       0.08499943       0.16982618       0.28175726 </v>
   <v>       0.41667002       0.08334002       0.00000000 </v>
   <v>       0.24883034       0.24956677       0.13802640 </v>
   <v>       0.08547302       0.41528394       0.28206454 </v>
   <v>       0.16667002       0.08334002       0.00000000 </v>
   <v>       0.99835809       0.24892696       0.13925249 </v>
   <v>       0.32756059       0.41531686       0.27812884 </v>
   <v>       0.08334004       0.16667004       0.06913001 </v>
   <v>       0.41640535       0.33337524       0.20616424 </v>
   <v>       0.24175301       0.98277743       0.35512682 </v>
   <v>       0.33334003       0.16667004       0.06913001 </v>
   <v>       0.16417783       0.33196504       0.20954266 </v>
   <v>       0.98992464       0.99246418       0.35407767 </v>
   <v>       0.33334009       0.41667010       0.06913001 </v>
   <v>       0.17014793       0.08478168       0.21052673 </v>
   <v>       0.99774694       0.24885971       0.35223671 </v>
   <v>       0.08334009       0.41667010       0.06913001 </v>
   <v>       0.41560084       0.08261119       0.20773324 </v>
   <v>       0.24763052       0.26120817       0.37048521 </v>
   <v>       0.66667011       0.33334008       0.00000000 </v>
   <v>       0.50150444       0.00121979       0.13798717 </v>
   <v>       0.83628121       0.16717400       0.27650604 </v>
   <v>       0.91667012       0.33334008       0.00000000 </v>
   <v>       0.75051020       0.00073021       0.13961238 </v>
   <v>       0.58175153       0.16966829       0.28428333 </v>
   <v>       0.91667006       0.08334002       0.00000000 </v>
   <v>       0.75042799       0.25032816       0.13909061 </v>
   <v>       0.58146445       0.42217179       0.28569388 </v>
   <v>       0.66667006       0.08334002       0.00000000 </v>
   <v>       0.50074216       0.25024814       0.13818342 </v>
   <v>       0.83587757       0.42386467       0.27950915 </v>
   <v>       0.58334004       0.16667004       0.06913001 </v>
   <v>       0.91760951       0.33630164       0.21141631 </v>
   <v>       0.75502147       0.00897178       0.35076206 </v>
   <v>       0.83334004       0.16667004       0.06913001 </v>
   <v>       0.66669738       0.33558453       0.20920121 </v>
   <v>       0.50324344       0.99185783       0.35349821 </v>
   <v>       0.83334010       0.41667010       0.06913001 </v>
   <v>       0.66526126       0.08458779       0.21178660 </v>
   <v>       0.58334010       0.41667010       0.06913001 </v>
   <v>       0.91759891       0.08056344       0.21150317 </v>
   <v>       0.76005226       0.24850658       0.35152651 </v>
   <v>       0.16667019       0.83334020       0.00000000 </v>
   <v>       0.99879241       0.49982489       0.13789577 </v>
   <v>       0.33390574       0.67132218       0.27826334 </v>
   <v>       0.41667019       0.83334020       0.00000000 </v>
   <v>       0.24753619       0.49831040       0.13745344 </v>
   <v>       0.08179094       0.66805004       0.28008214 </v>
   <v>       0.41667014       0.58334014       0.00000000 </v>
   <v>       0.24905079       0.74983228       0.13738700 </v>
   <v>       0.07905502       0.91295276       0.27904089 </v>
   <v>       0.16667013       0.58334014       0.00000000 </v>
   <v>       0.00031342       0.75026069       0.13753888 </v>
   <v>       0.33251908       0.91141992       0.27563941 </v>
   <v>       0.08334015       0.66667020       0.06913001 </v>
   <v>       0.41664186       0.83318544       0.20699144 </v>
   <v>       0.24990309       0.48970178       0.37042096 </v>
   <v>       0.33334015       0.66667020       0.06913001 </v>
   <v>       0.16625620       0.83340984       0.20908630 </v>
   <v>       0.99065881       0.49906852       0.35411870 </v>
   <v>       0.33334021       0.91667026       0.06913001 </v>
   <v>       0.16448685       0.58257087       0.20859264 </v>
   <v>       0.99797052       0.74863020       0.35268015 </v>
   <v>       0.08334021       0.91667026       0.06913001 </v>
   <v>       0.41528950       0.58426065       0.20370636 </v>
   <v>       0.25555490       0.76069312       0.35442538 </v>
   <v>       0.66667023       0.83334020       0.00000000 </v>
   <v>       0.50094894       0.50003833       0.13779418 </v>
   <v>       0.83279627       0.66669560       0.28071025 </v>
   <v>       0.91667023       0.83334020       0.00000000 </v>
   <v>       0.75104243       0.50002988       0.13734081 </v>
   <v>       0.58105492       0.65393163       0.28067735 </v>
   <v>       0.91667018       0.58334014       0.00000000 </v>
   <v>       0.75056535       0.74976322       0.13754129 </v>
   <v>       0.57992961       0.91445911       0.27814129 </v>
   <v>       0.66667017       0.58334014       0.00000000 </v>
   <v>       0.50067921       0.75079919       0.13714668 </v>
   <v>       0.83373733       0.91042903       0.28023600 </v>
   <v>       0.58334015       0.66667020       0.06913001 </v>
   <v>       0.91620384       0.83131071       0.20968811 </v>
   <v>       0.74461730       0.50469461       0.36824713 </v>
   <v>       0.83334016       0.66667020       0.06913001 </v>
   <v>       0.66517195       0.82943556       0.20887208 </v>
   <v>       0.83334022       0.91667026       0.06913001 </v>
   <v>       0.67047092       0.58304840       0.20704742 </v>
   <v>       0.91775312       0.58567350       0.21014174 </v>
   <v>       0.58407025       0.91683024       0.06934000 </v>
   <v>       0.74163988       0.73723930       0.36837920 </v>
   <v>       0.49439518       0.75044902       0.36513585 </v>
   <v>       0.50426719       0.67655221       0.42318583 </v>
   <v>       0.65408981       0.66601055       0.42733121 </v>
   <v>       0.51742706       0.62301768       0.51434737 </v>
   <v>       0.49926760       0.51814914       0.42381691 </v>
   <v>       0.64945674       0.48738553       0.42108521 </v>
   <v>       0.49093869       0.37488305       0.46211529 </v>
   <v>       0.59831637       0.53268984       0.50558261 </v>
   <v>       0.33402239       0.49003574       0.42659926 </v>
   <v>       0.40973964       0.45129434       0.51011136 </v>
   <v>       0.32140113       0.32690843       0.43356102 </v>
   <v>       0.52783582       0.68876277       0.58684599 </v>
   <v>       0.46493435       0.70202878       0.58656241 </v>
   <v>       0.59862227       0.75873405       0.58616535 </v>
   <v>       0.52382265       0.64369454       0.62434609 </v>
   <v>       0.36771466       0.32994382       0.49864567 </v>
  </varray>
  <varray name="selective"  type="logical" >
   <v type="logical" >  F  F  F </v>
   <v type="logical" >  T  T  T </v>
   <v type="logical" >  T  T  T </v>
   <v type="logical" >  F  F  F </v>
   <v type="logical" >  T  T  T </v>
   <v type="logical" >  T  T  T </v>
   <v type="logical" >  F  F  F </v>
   <v type="logical" >  T  T  T </v>
   <v type="logical" >  T  T  T </v>
   <v type="logical" >  F  F  F </v>
   <v type="logical" >  T  T  T </v>
   <v type="logical" >  T  T  T </v>
   <v type="logical" >  F  F  F </v>
   <v type="logical" >  T  T  T </v>
   <v type="logical" >  T  T  T </v>
   <v type="logical" >  F  F  F </v>
   <v type="logical" >  T  T  T </v>
   <v type="logical" >  T  T  T </v>
   <v type="logical" >  F  F  F </v>
   <v type="logical" >  T  T  T </v>
   <v type="logical" >  T  T  T </v>
   <v type="logical" >  F  F  F </v>
   <v type="logical" >  T  T  T </v>
   <v type="logical" >  T  T  T </v>
   <v type="logical" >  F  F  F </v>
   <v type="logical" >  T  T  T </v>
   <v type="logical" >  T  T  T </v>
   <v type="logical" >  F  F  F </v>
   <v type="logical" >  T  T  T </v>
   <v type="logical" >  T  T  T </v>
   <v type="logical" >  F  F  F </v>
   <v type="logical" >  T  T  T </v>
   <v type="logical" >  T  T  T </v>
   <v type="logical" >  F  F  F </v>
   <v type="logical" >  T  T  T </v>
   <v type="logical" >  T  T  T </v>
   <v type="logical" >  F  F  F </v>
   <v type="logical" >  T  T  T </v>
   <v type="logical" >  T  T  T </v>
   <v type="logical" >  F  F  F </v>
   <v type="logical" >  T  T  T </v>
   <v type="logical" >  T  T  T </v>
   <v type="logical" >  F  F  F </v>
   <v type="logical" >  T  T  T </v>
   <v type="logical" >  T  T  T </v>
   <v type="logical" >  F  F  F </v>
   <v type="logical" >  T  T  T </v>
   <v type="logical" >  T  T  T </v>
   <v type="logical" >  F  F  F </v>
   <v type="logical" >  T  T  T </v>
   <v type="logical" >  T  T  T </v>
   <v type="logical" >  F  F  F </v>
   <v type="logical" >  T  T  T </v>
   <v type="logical" >  T  T  T </v>
   <v type="logical" >  F  F  F </v>
   <v type="logical" >  T  T  T </v>
   <v type="logical" >  T  T  T </v>
   <v type="logical" >  F  F  F </v>
   <v type="logical" >  T  T  T </v>
   <v type="logical" >  T  T  T </v>
   <v type="logical" >  F  F  F </v>
   <v type="logical" >  T  T  T </v>
   <v type="logical" >  T  T  T </v>
   <v type="logical" >  F  F  F </v>
   <v type="logical" >  T  T  T </v>
   <v type="logical" >  T  T  T </v>
   <v type="logical" >  F  F  F </v>
   <v type="logical" >  T  T  T </v>
   <v type="logical" >  T  T  T </v>
   <v type="logical" >  F  F  F </v>
   <v type="logical" >  T  T  T </v>
   <v type="logical" >  T  T  T </v>
   <v type="logical" >  F  F  F </v>
   <v type="logical" >  T  T  T </v>
   <v type="logical" >  T  T  T </v>
   <v type="logical" >  F  F  F </v>
   <v type="logical" >  T  T  T </v>
   <v type="logical" >  T  T  T </v>
   <v type="logical" >  F  F  F </v>
   <v type="logical" >  T  T  T </v>
   <v type="logical" >  T  T  T </v>
   <v type="logical" >  F  F  F </v>
   <v type="logical" >  T  T  T </v>
   <v type="logical" >  T  T  T </v>
   <v type="logical" >  F  F  F </v>
   <v type="logical" >  T  T  T </v>
   <v type="logical" >  T  T  T </v>
   <v type="logical" >  F  F  F </v>
   <v type="logical" >  T  T  T </v>
   <v type="logical" >  T  T  T </v>
   <v type="logical" >  F  F  F </v>
   <v type="logical" >  T  T  T </v>
   <v type="logical" >  F  F  F </v>
   <v type="logical" >  T  T  T </v>
   <v type="logical" >  T  T  T </v>
   <v type="logical" >  F  F  F </v>
   <v type="logical" >  T  T  T </v>
   <v type="logical" >  T  T  T </v>
   <v type="logical" >  F  F  F </v>
   <v type="logical" >  T  T  T </v>
   <v type="logical" >  T  T  T </v>
   <v type="logical" >  F  F  F </v>
   <v type="logical" >  T  T  T </v>
   <v type="logical" >  T  T  T </v>
   <v type="logical" >  F  F  F </v>
   <v type="logical" >  T  T  T </v>
   <v type="logical" >  T  T  T </v>
   <v type="logical" >  F  F  F </v>
   <v type="logical" >  T  T  T </v>
   <v type="logical" >  T  T  T </v>
   <v type="logical" >  F  F  F </v>
   <v type="logical" >  T  T  T </v>
   <v type="logical" >  T  T  T </v>
   <v type="logical" >  F  F  F </v>
   <v type="logical" >  T  T  T </v>
   <v type="logical" >  T  T  T </v>
   <v type="logical" >  F  F  F </v>
   <v type="logical" >  T  T  T </v>
   <v type="logical" >  T  T  T </v>
   <v type="logical" >  F  F  F </v>
   <v type="logical" >  T  T  T </v>
   <v type="logical" >  T  T  T </v>
   <v type="logical" >  F  F  F </v>
   <v type="logical" >  T  T  T </v>
   <v type="logical" >  T  T  T </v>
   <v type="logical" >  F  F  F </v>
   <v type="logical" >  T  T  T </v>
   <v type="logical" >  T  T  T </v>
   <v type="logical" >  F  F  F </v>
   <v type="logical" >  T  T  T </v>
   <v type="logical" >  T  T  T </v>
   <v type="logical" >  F  F  F </v>
   <v type="logical" >  T  T  T </v>
   <v type="logical" >  T  T  T </v>
   <v type="logical" >  F  F  F </v>
   <v type="logical" >  T  T  T </v>
   <v type="logical" >  F  F  F </v>
   <v type="logical" >  T  T  T </v>
   <v type="logical" >  T  T  T </v>
   <v type="logical" >  F  F  F </v>
   <v type="logical" >  T  T  T </v>
   <v type="logical" >  T  T  T </v>
   <v type="logical" >  T  T  T </v>
   <v type="logical" >  T  T  T </v>
   <v type="logical" >  T  T  T </v>
   <v type="logical" >  T  T  T </v>
   <v type="logical" >  T  T  T </v>
   <v type="logical" >  T  T  T </v>
   <v type="logical" >  T  T  T </v>
   <v type="logical" >  T  T  T </v>
   <v type="logical" >  T  T  T </v>
   <v type="logical" >  T  T  T </v>
   <v type="logical" >  T  T  T </v>
   <v type="logical" >  T  T  T </v>
   <v type="logical" >  T  T  T </v>
   <v type="logical" >  T  T  T </v>
   <v type="logical" >  T  T  T </v>
  </varray>
  <nose>
   <v>      -3.00000000       0.00000000       0.00010000       0.00010000 </v>
  </nose>
 </structure>
</modeling>
