CeO2                                    
           1
    15.526200    0.000000    0.000000
    -7.763219   13.446001    0.000000
     0.000000    0.000000   22.923201
   Ce   O    Ni   C    H 
  48  94  10   1   4
Direct configuration=     1
   0.00000000  0.00000000  0.03457000
   0.33283322  0.16525852  0.17451123
   0.15700967  0.32868083  0.31542635
   0.00001006  0.25000006  0.03457000
   0.33078081  0.41576216  0.17204554
   0.16507065  0.07791697  0.32039183
   0.25000006  0.25000006  0.03457000
   0.08293863  0.41737387  0.17464321
   0.40988508  0.06769226  0.31514060
   0.25000000  0.00000000  0.03457000
   0.08350226  0.16580038  0.17508027
   0.40903626  0.33409016  0.30922191
   0.50000001  0.00000000  0.03457000
   0.83355954  0.16676733  0.17453092
   0.67828252  0.33635817  0.31443469
   0.50001008  0.25000006  0.03457000
   0.83409150  0.41784006  0.17367725
   0.66722798  0.08268615  0.31487089
   0.75000007  0.25000006  0.03457000
   0.58321410  0.41571044  0.17262731
   0.91479909  0.08131589  0.31509320
   0.75000001  0.00000000  0.03457000
   0.58272987  0.16666842  0.17534503
   0.91670253  0.33254892  0.31558778
   0.00000011  0.50000013  0.03457000
   0.33148375  0.66774066  0.17276586
   0.16717251  0.83286390  0.31637159
   0.00001017  0.75000019  0.03457000
   0.33345263  0.91641112  0.17265274
   0.16496579  0.58671657  0.32046910
   0.25000018  0.75000019  0.03457000
   0.08430370  0.91722076  0.17443293
   0.40998950  0.58600261  0.30669790
   0.25000012  0.50000013  0.03457000
   0.08381463  0.66685027  0.17424317
   0.41475528  0.83543020  0.31547488
   0.50000012  0.50000013  0.03457000
   0.83651536  0.66802545  0.17217608
   0.66738387  0.83624204  0.31713578
   0.50001019  0.75000019  0.03457000
   0.83282895  0.91519256  0.17480457
   0.67542368  0.58846190  0.30705901
   0.75000019  0.75000019  0.03457000
   0.58268070  0.91584825  0.17446466
   0.92467536  0.58751753  0.31640353
   0.75000013  0.50000013  0.03457000
   0.58322495  0.66722084  0.17226575
   0.92327970  0.83790328  0.31572189
   0.16667007  0.33334008  0.00000000
   0.00063670  0.99985951  0.13892472
   0.34186889  0.17268057  0.28661467
   0.41667008  0.33334008  0.00000000
   0.24951523  0.00004536  0.13760581
   0.08499943  0.16982618  0.28175726
   0.41667002  0.08334002  0.00000000
   0.24883034  0.24956677  0.13802640
   0.08547302  0.41528394  0.28206454
   0.16667002  0.08334002  0.00000000
   0.99835809  0.24892696  0.13925249
   0.32756059  0.41531686  0.27812884
   0.08334004  0.16667004  0.06913001
   0.41640535  0.33337524  0.20616424
   0.24175301  0.98277743  0.35512682
   0.33334003  0.16667004  0.06913001
   0.16417783  0.33196504  0.20954266
   0.98992464  0.99246418  0.35407767
   0.33334009  0.41667010  0.06913001
   0.17014793  0.08478168  0.21052673
   0.99774694  0.24885971  0.35223671
   0.08334009  0.41667010  0.06913001
   0.41560084  0.08261119  0.20773324
   0.24763052  0.26120817  0.37048521
   0.66667011  0.33334008  0.00000000
   0.50150444  0.00121979  0.13798717
   0.83628121  0.16717400  0.27650604
   0.91667012  0.33334008  0.00000000
   0.75051020  0.00073021  0.13961238
   0.58175153  0.16966829  0.28428333
   0.91667006  0.08334002  0.00000000
   0.75042799  0.25032816  0.13909061
   0.58146445  0.42217179  0.28569388
   0.66667006  0.08334002  0.00000000
   0.50074216  0.25024814  0.13818342
   0.83587757  0.42386467  0.27950915
   0.58334004  0.16667004  0.06913001
   0.91760951  0.33630164  0.21141631
   0.75502147  0.00897178  0.35076206
   0.83334004  0.16667004  0.06913001
   0.66669738  0.33558453  0.20920121
   0.50324344  0.99185783  0.35349821
   0.83334010  0.41667010  0.06913001
   0.66526126  0.08458779  0.21178660
   0.58334010  0.41667010  0.06913001
   0.91759891  0.08056344  0.21150317
   0.76005226  0.24850658  0.35152651
   0.16667019  0.83334020  0.00000000
   0.99879241  0.49982489  0.13789577
   0.33390574  0.67132218  0.27826334
   0.41667019  0.83334020  0.00000000
   0.24753619  0.49831040  0.13745344
   0.08179094  0.66805004  0.28008214
   0.41667014  0.58334014  0.00000000
   0.24905079  0.74983228  0.13738700
   0.07905502  0.91295276  0.27904089
   0.16667013  0.58334014  0.00000000
   0.00031342  0.75026069  0.13753888
   0.33251908  0.91141992  0.27563941
   0.08334015  0.66667020  0.06913001
   0.41664186  0.83318544  0.20699144
   0.24990309  0.48970178  0.37042096
   0.33334015  0.66667020  0.06913001
   0.16625620  0.83340984  0.20908630
   0.99065881  0.49906852  0.35411870
   0.33334021  0.91667026  0.06913001
   0.16448685  0.58257087  0.20859264
   0.99797052  0.74863020  0.35268015
   0.08334021  0.91667026  0.06913001
   0.41528950  0.58426065  0.20370636
   0.25555490  0.76069312  0.35442538
   0.66667023  0.83334020  0.00000000
   0.50094894  0.50003833  0.13779418
   0.83279627  0.66669560  0.28071025
   0.91667023  0.83334020  0.00000000
   0.75104243  0.50002988  0.13734081
   0.58105492  0.65393163  0.28067735
   0.91667018  0.58334014  0.00000000
   0.75056535  0.74976322  0.13754129
   0.57992961  0.91445911  0.27814129
   0.66667017  0.58334014  0.00000000
   0.50067921  0.75079919  0.13714668
   0.83373733  0.91042903  0.28023600
   0.58334015  0.66667020  0.06913001
   0.91620384  0.83131071  0.20968811
   0.74461730  0.50469461  0.36824713
   0.83334016  0.66667020  0.06913001
   0.66517195  0.82943556  0.20887208
   0.83334022  0.91667026  0.06913001
   0.67047092  0.58304840  0.20704742
   0.91775312  0.58567350  0.21014174
   0.58407025  0.91683024  0.06934000
   0.74163988  0.73723930  0.36837920
   0.49439518  0.75044902  0.36513585
   0.50426719  0.67655221  0.42318583
   0.65408981  0.66601055  0.42733121
   0.51742706  0.62301768  0.51434737
   0.49926760  0.51814914  0.42381691
   0.64945674  0.48738553  0.42108521
   0.49093869  0.37488305  0.46211529
   0.59831637  0.53268984  0.50558261
   0.33402239  0.49003574  0.42659926
   0.40973964  0.45129434  0.51011136
   0.32140113  0.32690843  0.43356102
   0.52790022  0.68876277  0.58684599
   0.46493435  0.70202878  0.58656241
   0.59862227  0.75873405  0.58616535
   0.52382265  0.64369454  0.62434609
   0.36771466  0.32994382  0.49864567
Direct configuration=     2
   0.00000000  0.00000000  0.03457000
   0.33283322  0.16525852  0.17451123
   0.15700967  0.32868083  0.31542635
   0.00001006  0.25000006  0.03457000
   0.33078081  0.41576216  0.17204554
   0.16507065  0.07791697  0.32039183
   0.25000006  0.25000006  0.03457000
   0.08293863  0.41737387  0.17464321
   0.40988508  0.06769226  0.31514060
   0.25000000  0.00000000  0.03457000
   0.08350226  0.16580038  0.17508027
   0.40903626  0.33409016  0.30922191
   0.50000001  0.00000000  0.03457000
   0.83355954  0.16676733  0.17453092
   0.67828252  0.33635817  0.31443469
   0.50001008  0.25000006  0.03457000
   0.83409150  0.41784006  0.17367725
   0.66722798  0.08268615  0.31487089
   0.75000007  0.25000006  0.03457000
   0.58321410  0.41571044  0.17262731
   0.91479909  0.08131589  0.31509320
   0.75000001  0.00000000  0.03457000
   0.58272987  0.16666842  0.17534503
   0.91670253  0.33254892  0.31558778
   0.00000011  0.50000013  0.03457000
   0.33148375  0.66774066  0.17276586
   0.16717251  0.83286390  0.31637159
   0.00001017  0.75000019  0.03457000
   0.33345263  0.91641112  0.17265274
   0.16496579  0.58671657  0.32046910
   0.25000018  0.75000019  0.03457000
   0.08430370  0.91722076  0.17443293
   0.40998950  0.58600261  0.30669790
   0.25000012  0.50000013  0.03457000
   0.08381463  0.66685027  0.17424317
   0.41475528  0.83543020  0.31547488
   0.50000012  0.50000013  0.03457000
   0.83651536  0.66802545  0.17217608
   0.66738387  0.83624204  0.31713578
   0.50001019  0.75000019  0.03457000
   0.83282895  0.91519256  0.17480457
   0.67542368  0.58846190  0.30705901
   0.75000019  0.75000019  0.03457000
   0.58268070  0.91584825  0.17446466
   0.92467536  0.58751753  0.31640353
   0.75000013  0.50000013  0.03457000
   0.58322495  0.66722084  0.17226575
   0.92327970  0.83790328  0.31572189
   0.16667007  0.33334008  0.00000000
   0.00063670  0.99985951  0.13892472
   0.34186889  0.17268057  0.28661467
   0.41667008  0.33334008  0.00000000
   0.24951523  0.00004536  0.13760581
   0.08499943  0.16982618  0.28175726
   0.41667002  0.08334002  0.00000000
   0.24883034  0.24956677  0.13802640
   0.08547302  0.41528394  0.28206454
   0.16667002  0.08334002  0.00000000
   0.99835809  0.24892696  0.13925249
   0.32756059  0.41531686  0.27812884
   0.08334004  0.16667004  0.06913001
   0.41640535  0.33337524  0.20616424
   0.24175301  0.98277743  0.35512682
   0.33334003  0.16667004  0.06913001
   0.16417783  0.33196504  0.20954266
   0.98992464  0.99246418  0.35407767
   0.33334009  0.41667010  0.06913001
   0.17014793  0.08478168  0.21052673
   0.99774694  0.24885971  0.35223671
   0.08334009  0.41667010  0.06913001
   0.41560084  0.08261119  0.20773324
   0.24763052  0.26120817  0.37048521
   0.66667011  0.33334008  0.00000000
   0.50150444  0.00121979  0.13798717
   0.83628121  0.16717400  0.27650604
   0.91667012  0.33334008  0.00000000
   0.75051020  0.00073021  0.13961238
   0.58175153  0.16966829  0.28428333
   0.91667006  0.08334002  0.00000000
   0.75042799  0.25032816  0.13909061
   0.58146445  0.42217179  0.28569388
   0.66667006  0.08334002  0.00000000
   0.50074216  0.25024814  0.13818342
   0.83587757  0.42386467  0.27950915
   0.58334004  0.16667004  0.06913001
   0.91760951  0.33630164  0.21141631
   0.75502147  0.00897178  0.35076206
   0.83334004  0.16667004  0.06913001
   0.66669738  0.33558453  0.20920121
   0.50324344  0.99185783  0.35349821
   0.83334010  0.41667010  0.06913001
   0.66526126  0.08458779  0.21178660
   0.58334010  0.41667010  0.06913001
   0.91759891  0.08056344  0.21150317
   0.76005226  0.24850658  0.35152651
   0.16667019  0.83334020  0.00000000
   0.99879241  0.49982489  0.13789577
   0.33390574  0.67132218  0.27826334
   0.41667019  0.83334020  0.00000000
   0.24753619  0.49831040  0.13745344
   0.08179094  0.66805004  0.28008214
   0.41667014  0.58334014  0.00000000
   0.24905079  0.74983228  0.13738700
   0.07905502  0.91295276  0.27904089
   0.16667013  0.58334014  0.00000000
   0.00031342  0.75026069  0.13753888
   0.33251908  0.91141992  0.27563941
   0.08334015  0.66667020  0.06913001
   0.41664186  0.83318544  0.20699144
   0.24990309  0.48970178  0.37042096
   0.33334015  0.66667020  0.06913001
   0.16625620  0.83340984  0.20908630
   0.99065881  0.49906852  0.35411870
   0.33334021  0.91667026  0.06913001
   0.16448685  0.58257087  0.20859264
   0.99797052  0.74863020  0.35268015
   0.08334021  0.91667026  0.06913001
   0.41528950  0.58426065  0.20370636
   0.25555490  0.76069312  0.35442538
   0.66667023  0.83334020  0.00000000
   0.50094894  0.50003833  0.13779418
   0.83279627  0.66669560  0.28071025
   0.91667023  0.83334020  0.00000000
   0.75104243  0.50002988  0.13734081
   0.58105492  0.65393163  0.28067735
   0.91667018  0.58334014  0.00000000
   0.75056535  0.74976322  0.13754129
   0.57992961  0.91445911  0.27814129
   0.66667017  0.58334014  0.00000000
   0.50067921  0.75079919  0.13714668
   0.83373733  0.91042903  0.28023600
   0.58334015  0.66667020  0.06913001
   0.91620384  0.83131071  0.20968811
   0.74461730  0.50469461  0.36824713
   0.83334016  0.66667020  0.06913001
   0.66517195  0.82943556  0.20887208
   0.83334022  0.91667026  0.06913001
   0.67047092  0.58304840  0.20704742
   0.91775312  0.58567350  0.21014174
   0.58407025  0.91683024  0.06934000
   0.74163988  0.73723930  0.36837920
   0.49439518  0.75044902  0.36513585
   0.50426719  0.67655221  0.42318583
   0.65408981  0.66601055  0.42733121
   0.51742706  0.62301768  0.51434737
   0.49926760  0.51814914  0.42381691
   0.64945674  0.48738553  0.42108521
   0.49093869  0.37488305  0.46211529
   0.59831637  0.53268984  0.50558261
   0.33402239  0.49003574  0.42659926
   0.40973964  0.45129434  0.51011136
   0.32140113  0.32690843  0.43356102
   0.52787300  0.68883714  0.58684599
   0.46493435  0.70202878  0.58656241
   0.59862227  0.75873405  0.58616535
   0.52382265  0.64369454  0.62434609
   0.36771466  0.32994382  0.49864567
Direct configuration=     3
   0.00000000  0.00000000  0.03457000
   0.33283322  0.16525852  0.17451123
   0.15700967  0.32868083  0.31542635
   0.00001006  0.25000006  0.03457000
   0.33078081  0.41576216  0.17204554
   0.16507065  0.07791697  0.32039183
   0.25000006  0.25000006  0.03457000
   0.08293863  0.41737387  0.17464321
   0.40988508  0.06769226  0.31514060
   0.25000000  0.00000000  0.03457000
   0.08350226  0.16580038  0.17508027
   0.40903626  0.33409016  0.30922191
   0.50000001  0.00000000  0.03457000
   0.83355954  0.16676733  0.17453092
   0.67828252  0.33635817  0.31443469
   0.50001008  0.25000006  0.03457000
   0.83409150  0.41784006  0.17367725
   0.66722798  0.08268615  0.31487089
   0.75000007  0.25000006  0.03457000
   0.58321410  0.41571044  0.17262731
   0.91479909  0.08131589  0.31509320
   0.75000001  0.00000000  0.03457000
   0.58272987  0.16666842  0.17534503
   0.91670253  0.33254892  0.31558778
   0.00000011  0.50000013  0.03457000
   0.33148375  0.66774066  0.17276586
   0.16717251  0.83286390  0.31637159
   0.00001017  0.75000019  0.03457000
   0.33345263  0.91641112  0.17265274
   0.16496579  0.58671657  0.32046910
   0.25000018  0.75000019  0.03457000
   0.08430370  0.91722076  0.17443293
   0.40998950  0.58600261  0.30669790
   0.25000012  0.50000013  0.03457000
   0.08381463  0.66685027  0.17424317
   0.41475528  0.83543020  0.31547488
   0.50000012  0.50000013  0.03457000
   0.83651536  0.66802545  0.17217608
   0.66738387  0.83624204  0.31713578
   0.50001019  0.75000019  0.03457000
   0.83282895  0.91519256  0.17480457
   0.67542368  0.58846190  0.30705901
   0.75000019  0.75000019  0.03457000
   0.58268070  0.91584825  0.17446466
   0.92467536  0.58751753  0.31640353
   0.75000013  0.50000013  0.03457000
   0.58322495  0.66722084  0.17226575
   0.92327970  0.83790328  0.31572189
   0.16667007  0.33334008  0.00000000
   0.00063670  0.99985951  0.13892472
   0.34186889  0.17268057  0.28661467
   0.41667008  0.33334008  0.00000000
   0.24951523  0.00004536  0.13760581
   0.08499943  0.16982618  0.28175726
   0.41667002  0.08334002  0.00000000
   0.24883034  0.24956677  0.13802640
   0.08547302  0.41528394  0.28206454
   0.16667002  0.08334002  0.00000000
   0.99835809  0.24892696  0.13925249
   0.32756059  0.41531686  0.27812884
   0.08334004  0.16667004  0.06913001
   0.41640535  0.33337524  0.20616424
   0.24175301  0.98277743  0.35512682
   0.33334003  0.16667004  0.06913001
   0.16417783  0.33196504  0.20954266
   0.98992464  0.99246418  0.35407767
   0.33334009  0.41667010  0.06913001
   0.17014793  0.08478168  0.21052673
   0.99774694  0.24885971  0.35223671
   0.08334009  0.41667010  0.06913001
   0.41560084  0.08261119  0.20773324
   0.24763052  0.26120817  0.37048521
   0.66667011  0.33334008  0.00000000
   0.50150444  0.00121979  0.13798717
   0.83628121  0.16717400  0.27650604
   0.91667012  0.33334008  0.00000000
   0.75051020  0.00073021  0.13961238
   0.58175153  0.16966829  0.28428333
   0.91667006  0.08334002  0.00000000
   0.75042799  0.25032816  0.13909061
   0.58146445  0.42217179  0.28569388
   0.66667006  0.08334002  0.00000000
   0.50074216  0.25024814  0.13818342
   0.83587757  0.42386467  0.27950915
   0.58334004  0.16667004  0.06913001
   0.91760951  0.33630164  0.21141631
   0.75502147  0.00897178  0.35076206
   0.83334004  0.16667004  0.06913001
   0.66669738  0.33558453  0.20920121
   0.50324344  0.99185783  0.35349821
   0.83334010  0.41667010  0.06913001
   0.66526126  0.08458779  0.21178660
   0.58334010  0.41667010  0.06913001
   0.91759891  0.08056344  0.21150317
   0.76005226  0.24850658  0.35152651
   0.16667019  0.83334020  0.00000000
   0.99879241  0.49982489  0.13789577
   0.33390574  0.67132218  0.27826334
   0.41667019  0.83334020  0.00000000
   0.24753619  0.49831040  0.13745344
   0.08179094  0.66805004  0.28008214
   0.41667014  0.58334014  0.00000000
   0.24905079  0.74983228  0.13738700
   0.07905502  0.91295276  0.27904089
   0.16667013  0.58334014  0.00000000
   0.00031342  0.75026069  0.13753888
   0.33251908  0.91141992  0.27563941
   0.08334015  0.66667020  0.06913001
   0.41664186  0.83318544  0.20699144
   0.24990309  0.48970178  0.37042096
   0.33334015  0.66667020  0.06913001
   0.16625620  0.83340984  0.20908630
   0.99065881  0.49906852  0.35411870
   0.33334021  0.91667026  0.06913001
   0.16448685  0.58257087  0.20859264
   0.99797052  0.74863020  0.35268015
   0.08334021  0.91667026  0.06913001
   0.41528950  0.58426065  0.20370636
   0.25555490  0.76069312  0.35442538
   0.66667023  0.83334020  0.00000000
   0.50094894  0.50003833  0.13779418
   0.83279627  0.66669560  0.28071025
   0.91667023  0.83334020  0.00000000
   0.75104243  0.50002988  0.13734081
   0.58105492  0.65393163  0.28067735
   0.91667018  0.58334014  0.00000000
   0.75056535  0.74976322  0.13754129
   0.57992961  0.91445911  0.27814129
   0.66667017  0.58334014  0.00000000
   0.50067921  0.75079919  0.13714668
   0.83373733  0.91042903  0.28023600
   0.58334015  0.66667020  0.06913001
   0.91620384  0.83131071  0.20968811
   0.74461730  0.50469461  0.36824713
   0.83334016  0.66667020  0.06913001
   0.66517195  0.82943556  0.20887208
   0.83334022  0.91667026  0.06913001
   0.67047092  0.58304840  0.20704742
   0.91775312  0.58567350  0.21014174
   0.58407025  0.91683024  0.06934000
   0.74163988  0.73723930  0.36837920
   0.49439518  0.75044902  0.36513585
   0.50426719  0.67655221  0.42318583
   0.65408981  0.66601055  0.42733121
   0.51742706  0.62301768  0.51434737
   0.49926760  0.51814914  0.42381691
   0.64945674  0.48738553  0.42108521
   0.49093869  0.37488305  0.46211529
   0.59831637  0.53268984  0.50558261
   0.33402239  0.49003574  0.42659926
   0.40973964  0.45129434  0.51011136
   0.32140113  0.32690843  0.43356102
   0.52783582  0.68876277  0.58688962
   0.46493435  0.70202878  0.58656241
   0.59862227  0.75873405  0.58616535
   0.52382265  0.64369454  0.62434609
   0.36771466  0.32994382  0.49864567
Direct configuration=     4
   0.00000000  0.00000000  0.03457000
   0.33283322  0.16525852  0.17451123
   0.15700967  0.32868083  0.31542635
   0.00001006  0.25000006  0.03457000
   0.33078081  0.41576216  0.17204554
   0.16507065  0.07791697  0.32039183
   0.25000006  0.25000006  0.03457000
   0.08293863  0.41737387  0.17464321
   0.40988508  0.06769226  0.31514060
   0.25000000  0.00000000  0.03457000
   0.08350226  0.16580038  0.17508027
   0.40903626  0.33409016  0.30922191
   0.50000001  0.00000000  0.03457000
   0.83355954  0.16676733  0.17453092
   0.67828252  0.33635817  0.31443469
   0.50001008  0.25000006  0.03457000
   0.83409150  0.41784006  0.17367725
   0.66722798  0.08268615  0.31487089
   0.75000007  0.25000006  0.03457000
   0.58321410  0.41571044  0.17262731
   0.91479909  0.08131589  0.31509320
   0.75000001  0.00000000  0.03457000
   0.58272987  0.16666842  0.17534503
   0.91670253  0.33254892  0.31558778
   0.00000011  0.50000013  0.03457000
   0.33148375  0.66774066  0.17276586
   0.16717251  0.83286390  0.31637159
   0.00001017  0.75000019  0.03457000
   0.33345263  0.91641112  0.17265274
   0.16496579  0.58671657  0.32046910
   0.25000018  0.75000019  0.03457000
   0.08430370  0.91722076  0.17443293
   0.40998950  0.58600261  0.30669790
   0.25000012  0.50000013  0.03457000
   0.08381463  0.66685027  0.17424317
   0.41475528  0.83543020  0.31547488
   0.50000012  0.50000013  0.03457000
   0.83651536  0.66802545  0.17217608
   0.66738387  0.83624204  0.31713578
   0.50001019  0.75000019  0.03457000
   0.83282895  0.91519256  0.17480457
   0.67542368  0.58846190  0.30705901
   0.75000019  0.75000019  0.03457000
   0.58268070  0.91584825  0.17446466
   0.92467536  0.58751753  0.31640353
   0.75000013  0.50000013  0.03457000
   0.58322495  0.66722084  0.17226575
   0.92327970  0.83790328  0.31572189
   0.16667007  0.33334008  0.00000000
   0.00063670  0.99985951  0.13892472
   0.34186889  0.17268057  0.28661467
   0.41667008  0.33334008  0.00000000
   0.24951523  0.00004536  0.13760581
   0.08499943  0.16982618  0.28175726
   0.41667002  0.08334002  0.00000000
   0.24883034  0.24956677  0.13802640
   0.08547302  0.41528394  0.28206454
   0.16667002  0.08334002  0.00000000
   0.99835809  0.24892696  0.13925249
   0.32756059  0.41531686  0.27812884
   0.08334004  0.16667004  0.06913001
   0.41640535  0.33337524  0.20616424
   0.24175301  0.98277743  0.35512682
   0.33334003  0.16667004  0.06913001
   0.16417783  0.33196504  0.20954266
   0.98992464  0.99246418  0.35407767
   0.33334009  0.41667010  0.06913001
   0.17014793  0.08478168  0.21052673
   0.99774694  0.24885971  0.35223671
   0.08334009  0.41667010  0.06913001
   0.41560084  0.08261119  0.20773324
   0.24763052  0.26120817  0.37048521
   0.66667011  0.33334008  0.00000000
   0.50150444  0.00121979  0.13798717
   0.83628121  0.16717400  0.27650604
   0.91667012  0.33334008  0.00000000
   0.75051020  0.00073021  0.13961238
   0.58175153  0.16966829  0.28428333
   0.91667006  0.08334002  0.00000000
   0.75042799  0.25032816  0.13909061
   0.58146445  0.42217179  0.28569388
   0.66667006  0.08334002  0.00000000
   0.50074216  0.25024814  0.13818342
   0.83587757  0.42386467  0.27950915
   0.58334004  0.16667004  0.06913001
   0.91760951  0.33630164  0.21141631
   0.75502147  0.00897178  0.35076206
   0.83334004  0.16667004  0.06913001
   0.66669738  0.33558453  0.20920121
   0.50324344  0.99185783  0.35349821
   0.83334010  0.41667010  0.06913001
   0.66526126  0.08458779  0.21178660
   0.58334010  0.41667010  0.06913001
   0.91759891  0.08056344  0.21150317
   0.76005226  0.24850658  0.35152651
   0.16667019  0.83334020  0.00000000
   0.99879241  0.49982489  0.13789577
   0.33390574  0.67132218  0.27826334
   0.41667019  0.83334020  0.00000000
   0.24753619  0.49831040  0.13745344
   0.08179094  0.66805004  0.28008214
   0.41667014  0.58334014  0.00000000
   0.24905079  0.74983228  0.13738700
   0.07905502  0.91295276  0.27904089
   0.16667013  0.58334014  0.00000000
   0.00031342  0.75026069  0.13753888
   0.33251908  0.91141992  0.27563941
   0.08334015  0.66667020  0.06913001
   0.41664186  0.83318544  0.20699144
   0.24990309  0.48970178  0.37042096
   0.33334015  0.66667020  0.06913001
   0.16625620  0.83340984  0.20908630
   0.99065881  0.49906852  0.35411870
   0.33334021  0.91667026  0.06913001
   0.16448685  0.58257087  0.20859264
   0.99797052  0.74863020  0.35268015
   0.08334021  0.91667026  0.06913001
   0.41528950  0.58426065  0.20370636
   0.25555490  0.76069312  0.35442538
   0.66667023  0.83334020  0.00000000
   0.50094894  0.50003833  0.13779418
   0.83279627  0.66669560  0.28071025
   0.91667023  0.83334020  0.00000000
   0.75104243  0.50002988  0.13734081
   0.58105492  0.65393163  0.28067735
   0.91667018  0.58334014  0.00000000
   0.75056535  0.74976322  0.13754129
   0.57992961  0.91445911  0.27814129
   0.66667017  0.58334014  0.00000000
   0.50067921  0.75079919  0.13714668
   0.83373733  0.91042903  0.28023600
   0.58334015  0.66667020  0.06913001
   0.91620384  0.83131071  0.20968811
   0.74461730  0.50469461  0.36824713
   0.83334016  0.66667020  0.06913001
   0.66517195  0.82943556  0.20887208
   0.83334022  0.91667026  0.06913001
   0.67047092  0.58304840  0.20704742
   0.91775312  0.58567350  0.21014174
   0.58407025  0.91683024  0.06934000
   0.74163988  0.73723930  0.36837920
   0.49439518  0.75044902  0.36513585
   0.50426719  0.67655221  0.42318583
   0.65408981  0.66601055  0.42733121
   0.51742706  0.62301768  0.51434737
   0.49926760  0.51814914  0.42381691
   0.64945674  0.48738553  0.42108521
   0.49093869  0.37488305  0.46211529
   0.59831637  0.53268984  0.50558261
   0.33402239  0.49003574  0.42659926
   0.40973964  0.45129434  0.51011136
   0.32140113  0.32690843  0.43356102
   0.52783582  0.68876277  0.58684599
   0.46499875  0.70202878  0.58656241
   0.59862227  0.75873405  0.58616535
   0.52382265  0.64369454  0.62434609
   0.36771466  0.32994382  0.49864567
Direct configuration=     5
   0.00000000  0.00000000  0.03457000
   0.33283322  0.16525852  0.17451123
   0.15700967  0.32868083  0.31542635
   0.00001006  0.25000006  0.03457000
   0.33078081  0.41576216  0.17204554
   0.16507065  0.07791697  0.32039183
   0.25000006  0.25000006  0.03457000
   0.08293863  0.41737387  0.17464321
   0.40988508  0.06769226  0.31514060
   0.25000000  0.00000000  0.03457000
   0.08350226  0.16580038  0.17508027
   0.40903626  0.33409016  0.30922191
   0.50000001  0.00000000  0.03457000
   0.83355954  0.16676733  0.17453092
   0.67828252  0.33635817  0.31443469
   0.50001008  0.25000006  0.03457000
   0.83409150  0.41784006  0.17367725
   0.66722798  0.08268615  0.31487089
   0.75000007  0.25000006  0.03457000
   0.58321410  0.41571044  0.17262731
   0.91479909  0.08131589  0.31509320
   0.75000001  0.00000000  0.03457000
   0.58272987  0.16666842  0.17534503
   0.91670253  0.33254892  0.31558778
   0.00000011  0.50000013  0.03457000
   0.33148375  0.66774066  0.17276586
   0.16717251  0.83286390  0.31637159
   0.00001017  0.75000019  0.03457000
   0.33345263  0.91641112  0.17265274
   0.16496579  0.58671657  0.32046910
   0.25000018  0.75000019  0.03457000
   0.08430370  0.91722076  0.17443293
   0.40998950  0.58600261  0.30669790
   0.25000012  0.50000013  0.03457000
   0.08381463  0.66685027  0.17424317
   0.41475528  0.83543020  0.31547488
   0.50000012  0.50000013  0.03457000
   0.83651536  0.66802545  0.17217608
   0.66738387  0.83624204  0.31713578
   0.50001019  0.75000019  0.03457000
   0.83282895  0.91519256  0.17480457
   0.67542368  0.58846190  0.30705901
   0.75000019  0.75000019  0.03457000
   0.58268070  0.91584825  0.17446466
   0.92467536  0.58751753  0.31640353
   0.75000013  0.50000013  0.03457000
   0.58322495  0.66722084  0.17226575
   0.92327970  0.83790328  0.31572189
   0.16667007  0.33334008  0.00000000
   0.00063670  0.99985951  0.13892472
   0.34186889  0.17268057  0.28661467
   0.41667008  0.33334008  0.00000000
   0.24951523  0.00004536  0.13760581
   0.08499943  0.16982618  0.28175726
   0.41667002  0.08334002  0.00000000
   0.24883034  0.24956677  0.13802640
   0.08547302  0.41528394  0.28206454
   0.16667002  0.08334002  0.00000000
   0.99835809  0.24892696  0.13925249
   0.32756059  0.41531686  0.27812884
   0.08334004  0.16667004  0.06913001
   0.41640535  0.33337524  0.20616424
   0.24175301  0.98277743  0.35512682
   0.33334003  0.16667004  0.06913001
   0.16417783  0.33196504  0.20954266
   0.98992464  0.99246418  0.35407767
   0.33334009  0.41667010  0.06913001
   0.17014793  0.08478168  0.21052673
   0.99774694  0.24885971  0.35223671
   0.08334009  0.41667010  0.06913001
   0.41560084  0.08261119  0.20773324
   0.24763052  0.26120817  0.37048521
   0.66667011  0.33334008  0.00000000
   0.50150444  0.00121979  0.13798717
   0.83628121  0.16717400  0.27650604
   0.91667012  0.33334008  0.00000000
   0.75051020  0.00073021  0.13961238
   0.58175153  0.16966829  0.28428333
   0.91667006  0.08334002  0.00000000
   0.75042799  0.25032816  0.13909061
   0.58146445  0.42217179  0.28569388
   0.66667006  0.08334002  0.00000000
   0.50074216  0.25024814  0.13818342
   0.83587757  0.42386467  0.27950915
   0.58334004  0.16667004  0.06913001
   0.91760951  0.33630164  0.21141631
   0.75502147  0.00897178  0.35076206
   0.83334004  0.16667004  0.06913001
   0.66669738  0.33558453  0.20920121
   0.50324344  0.99185783  0.35349821
   0.83334010  0.41667010  0.06913001
   0.66526126  0.08458779  0.21178660
   0.58334010  0.41667010  0.06913001
   0.91759891  0.08056344  0.21150317
   0.76005226  0.24850658  0.35152651
   0.16667019  0.83334020  0.00000000
   0.99879241  0.49982489  0.13789577
   0.33390574  0.67132218  0.27826334
   0.41667019  0.83334020  0.00000000
   0.24753619  0.49831040  0.13745344
   0.08179094  0.66805004  0.28008214
   0.41667014  0.58334014  0.00000000
   0.24905079  0.74983228  0.13738700
   0.07905502  0.91295276  0.27904089
   0.16667013  0.58334014  0.00000000
   0.00031342  0.75026069  0.13753888
   0.33251908  0.91141992  0.27563941
   0.08334015  0.66667020  0.06913001
   0.41664186  0.83318544  0.20699144
   0.24990309  0.48970178  0.37042096
   0.33334015  0.66667020  0.06913001
   0.16625620  0.83340984  0.20908630
   0.99065881  0.49906852  0.35411870
   0.33334021  0.91667026  0.06913001
   0.16448685  0.58257087  0.20859264
   0.99797052  0.74863020  0.35268015
   0.08334021  0.91667026  0.06913001
   0.41528950  0.58426065  0.20370636
   0.25555490  0.76069312  0.35442538
   0.66667023  0.83334020  0.00000000
   0.50094894  0.50003833  0.13779418
   0.83279627  0.66669560  0.28071025
   0.91667023  0.83334020  0.00000000
   0.75104243  0.50002988  0.13734081
   0.58105492  0.65393163  0.28067735
   0.91667018  0.58334014  0.00000000
   0.75056535  0.74976322  0.13754129
   0.57992961  0.91445911  0.27814129
   0.66667017  0.58334014  0.00000000
   0.50067921  0.75079919  0.13714668
   0.83373733  0.91042903  0.28023600
   0.58334015  0.66667020  0.06913001
   0.91620384  0.83131071  0.20968811
   0.74461730  0.50469461  0.36824713
   0.83334016  0.66667020  0.06913001
   0.66517195  0.82943556  0.20887208
   0.83334022  0.91667026  0.06913001
   0.67047092  0.58304840  0.20704742
   0.91775312  0.58567350  0.21014174
   0.58407025  0.91683024  0.06934000
   0.74163988  0.73723930  0.36837920
   0.49439518  0.75044902  0.36513585
   0.50426719  0.67655221  0.42318583
   0.65408981  0.66601055  0.42733121
   0.51742706  0.62301768  0.51434737
   0.49926760  0.51814914  0.42381691
   0.64945674  0.48738553  0.42108521
   0.49093869  0.37488305  0.46211529
   0.59831637  0.53268984  0.50558261
   0.33402239  0.49003574  0.42659926
   0.40973964  0.45129434  0.51011136
   0.32140113  0.32690843  0.43356102